+ 0.1 1 2 cbr 200 ------- 2 1.0 5.0 0 0
- 0.1 1 2 cbr 200 ------- 2 1.0 5.0 0 0
r 0.1108 1 2 cbr 200 ------- 2 1.0 5.0 0 0
+ 0.1108 2 3 cbr 200 ------- 2 1.0 5.0 0 0
- 0.1108 2 3 cbr 200 ------- 2 1.0 5.0 0 0
r 0.216133 2 3 cbr 200 ------- 2 1.0 5.0 0 0
+ 0.216133 3 5 cbr 200 ------- 2 1.0 5.0 0 0
- 0.216133 3 5 cbr 200 ------- 2 1.0 5.0 0 0
r 0.259333 3 5 cbr 200 ------- 2 1.0 5.0 0 0
+ 0.26 1 2 cbr 200 ------- 2 1.0 5.0 1 1
- 0.26 1 2 cbr 200 ------- 2 1.0 5.0 1 1
r 0.2708 1 2 cbr 200 ------- 2 1.0 5.0 1 1
+ 0.2708 2 3 cbr 200 ------- 2 1.0 5.0 1 1
- 0.2708 2 3 cbr 200 ------- 2 1.0 5.0 1 1
r 0.376133 2 3 cbr 200 ------- 2 1.0 5.0 1 1
+ 0.376133 3 5 cbr 200 ------- 2 1.0 5.0 1 1
- 0.376133 3 5 cbr 200 ------- 2 1.0 5.0 1 1
r 0.419333 3 5 cbr 200 ------- 2 1.0 5.0 1 1
+ 0.42 1 2 cbr 200 ------- 2 1.0 5.0 2 2
- 0.42 1 2 cbr 200 ------- 2 1.0 5.0 2 2
r 0.4308 1 2 cbr 200 ------- 2 1.0 5.0 2 2
+ 0.4308 2 3 cbr 200 ------- 2 1.0 5.0 2 2
- 0.4308 2 3 cbr 200 ------- 2 1.0 5.0 2 2
r 0.536133 2 3 cbr 200 ------- 2 1.0 5.0 2 2
+ 0.536133 3 5 cbr 200 ------- 2 1.0 5.0 2 2
- 0.536133 3 5 cbr 200 ------- 2 1.0 5.0 2 2
r 0.579333 3 5 cbr 200 ------- 2 1.0 5.0 2 2
+ 0.58 1 2 cbr 200 ------- 2 1.0 5.0 3 3
- 0.58 1 2 cbr 200 ------- 2 1.0 5.0 3 3
r 0.5908 1 2 cbr 200 ------- 2 1.0 5.0 3 3
+ 0.5908 2 3 cbr 200 ------- 2 1.0 5.0 3 3
- 0.5908 2 3 cbr 200 ------- 2 1.0 5.0 3 3
r 0.696133 2 3 cbr 200 ------- 2 1.0 5.0 3 3
+ 0.696133 3 5 cbr 200 ------- 2 1.0 5.0 3 3
- 0.696133 3 5 cbr 200 ------- 2 1.0 5.0 3 3
r 0.739333 3 5 cbr 200 ------- 2 1.0 5.0 3 3
+ 0.74 1 2 cbr 200 ------- 2 1.0 5.0 4 4
- 0.74 1 2 cbr 200 ------- 2 1.0 5.0 4 4
r 0.7508 1 2 cbr 200 ------- 2 1.0 5.0 4 4
+ 0.7508 2 3 cbr 200 ------- 2 1.0 5.0 4 4
- 0.7508 2 3 cbr 200 ------- 2 1.0 5.0 4 4
r 0.856133 2 3 cbr 200 ------- 2 1.0 5.0 4 4
+ 0.856133 3 5 cbr 200 ------- 2 1.0 5.0 4 4
- 0.856133 3 5 cbr 200 ------- 2 1.0 5.0 4 4
r 0.899333 3 5 cbr 200 ------- 2 1.0 5.0 4 4
+ 0.9 1 2 cbr 200 ------- 2 1.0 5.0 5 5
- 0.9 1 2 cbr 200 ------- 2 1.0 5.0 5 5
r 0.9108 1 2 cbr 200 ------- 2 1.0 5.0 5 5
+ 0.9108 2 3 cbr 200 ------- 2 1.0 5.0 5 5
- 0.9108 2 3 cbr 200 ------- 2 1.0 5.0 5 5
+ 1 0 2 tcp 40 ------- 1 0.0 4.0 0 6
- 1 0 2 tcp 40 ------- 1 0.0 4.0 0 6
r 1.01016 0 2 tcp 40 ------- 1 0.0 4.0 0 6
+ 1.01016 2 3 tcp 40 ------- 1 0.0 4.0 0 6
- 1.01016 2 3 tcp 40 ------- 1 0.0 4.0 0 6
r 1.016133 2 3 cbr 200 ------- 2 1.0 5.0 5 5
+ 1.016133 3 5 cbr 200 ------- 2 1.0 5.0 5 5
- 1.016133 3 5 cbr 200 ------- 2 1.0 5.0 5 5
r 1.059333 3 5 cbr 200 ------- 2 1.0 5.0 5 5
+ 1.06 1 2 cbr 200 ------- 2 1.0 5.0 6 7
- 1.06 1 2 cbr 200 ------- 2 1.0 5.0 6 7
r 1.0708 1 2 cbr 200 ------- 2 1.0 5.0 6 7
+ 1.0708 2 3 cbr 200 ------- 2 1.0 5.0 6 7
- 1.0708 2 3 cbr 200 ------- 2 1.0 5.0 6 7
r 1.111227 2 3 tcp 40 ------- 1 0.0 4.0 0 6
+ 1.111227 3 4 tcp 40 ------- 1 0.0 4.0 0 6
- 1.111227 3 4 tcp 40 ------- 1 0.0 4.0 0 6
r 1.151867 3 4 tcp 40 ------- 1 0.0 4.0 0 6
+ 1.151867 4 3 ack 40 ------- 1 4.0 0.0 0 8
- 1.151867 4 3 ack 40 ------- 1 4.0 0.0 0 8
r 1.176133 2 3 cbr 200 ------- 2 1.0 5.0 6 7
+ 1.176133 3 5 cbr 200 ------- 2 1.0 5.0 6 7
- 1.176133 3 5 cbr 200 ------- 2 1.0 5.0 6 7
r 1.192507 4 3 ack 40 ------- 1 4.0 0.0 0 8
+ 1.192507 3 2 ack 40 ------- 1 4.0 0.0 0 8
- 1.192507 3 2 ack 40 ------- 1 4.0 0.0 0 8
r 1.219333 3 5 cbr 200 ------- 2 1.0 5.0 6 7
+ 1.22 1 2 cbr 200 ------- 2 1.0 5.0 7 9
- 1.22 1 2 cbr 200 ------- 2 1.0 5.0 7 9
r 1.2308 1 2 cbr 200 ------- 2 1.0 5.0 7 9
+ 1.2308 2 3 cbr 200 ------- 2 1.0 5.0 7 9
- 1.2308 2 3 cbr 200 ------- 2 1.0 5.0 7 9
r 1.293573 3 2 ack 40 ------- 1 4.0 0.0 0 8
+ 1.293573 2 0 ack 40 ------- 1 4.0 0.0 0 8
- 1.293573 2 0 ack 40 ------- 1 4.0 0.0 0 8
r 1.303733 2 0 ack 40 ------- 1 4.0 0.0 0 8
+ 1.303733 0 2 tcp 592 ------- 1 0.0 4.0 1 10
- 1.303733 0 2 tcp 592 ------- 1 0.0 4.0 1 10
+ 1.303733 0 2 tcp 592 ------- 1 0.0 4.0 2 11
- 1.306101 0 2 tcp 592 ------- 1 0.0 4.0 2 11
r 1.316101 0 2 tcp 592 ------- 1 0.0 4.0 1 10
+ 1.316101 2 3 tcp 592 ------- 1 0.0 4.0 1 10
- 1.316101 2 3 tcp 592 ------- 1 0.0 4.0 1 10
r 1.318469 0 2 tcp 592 ------- 1 0.0 4.0 2 11
+ 1.318469 2 3 tcp 592 ------- 1 0.0 4.0 2 11
- 1.331888 2 3 tcp 592 ------- 1 0.0 4.0 2 11
r 1.336133 2 3 cbr 200 ------- 2 1.0 5.0 7 9
+ 1.336133 3 5 cbr 200 ------- 2 1.0 5.0 7 9
- 1.336133 3 5 cbr 200 ------- 2 1.0 5.0 7 9
r 1.379333 3 5 cbr 200 ------- 2 1.0 5.0 7 9
+ 1.38 1 2 cbr 200 ------- 2 1.0 5.0 8 12
- 1.38 1 2 cbr 200 ------- 2 1.0 5.0 8 12
r 1.3908 1 2 cbr 200 ------- 2 1.0 5.0 8 12
+ 1.3908 2 3 cbr 200 ------- 2 1.0 5.0 8 12
- 1.3908 2 3 cbr 200 ------- 2 1.0 5.0 8 12
r 1.431888 2 3 tcp 592 ------- 1 0.0 4.0 1 10
+ 1.431888 3 4 tcp 592 ------- 1 0.0 4.0 1 10
- 1.431888 3 4 tcp 592 ------- 1 0.0 4.0 1 10
r 1.447675 2 3 tcp 592 ------- 1 0.0 4.0 2 11
+ 1.447675 3 4 tcp 592 ------- 1 0.0 4.0 2 11
- 1.447675 3 4 tcp 592 ------- 1 0.0 4.0 2 11
r 1.48136 3 4 tcp 592 ------- 1 0.0 4.0 1 10
r 1.496133 2 3 cbr 200 ------- 2 1.0 5.0 8 12
+ 1.496133 3 5 cbr 200 ------- 2 1.0 5.0 8 12
- 1.496133 3 5 cbr 200 ------- 2 1.0 5.0 8 12
r 1.497147 3 4 tcp 592 ------- 1 0.0 4.0 2 11
+ 1.497147 4 3 ack 40 ------- 1 4.0 0.0 2 13
- 1.497147 4 3 ack 40 ------- 1 4.0 0.0 2 13
r 1.537787 4 3 ack 40 ------- 1 4.0 0.0 2 13
+ 1.537787 3 2 ack 40 ------- 1 4.0 0.0 2 13
- 1.537787 3 2 ack 40 ------- 1 4.0 0.0 2 13
r 1.539333 3 5 cbr 200 ------- 2 1.0 5.0 8 12
+ 1.54 1 2 cbr 200 ------- 2 1.0 5.0 9 14
- 1.54 1 2 cbr 200 ------- 2 1.0 5.0 9 14
r 1.5508 1 2 cbr 200 ------- 2 1.0 5.0 9 14
+ 1.5508 2 3 cbr 200 ------- 2 1.0 5.0 9 14
- 1.5508 2 3 cbr 200 ------- 2 1.0 5.0 9 14
r 1.638853 3 2 ack 40 ------- 1 4.0 0.0 2 13
+ 1.638853 2 0 ack 40 ------- 1 4.0 0.0 2 13
- 1.638853 2 0 ack 40 ------- 1 4.0 0.0 2 13
r 1.649013 2 0 ack 40 ------- 1 4.0 0.0 2 13
+ 1.649013 0 2 tcp 592 ------- 1 0.0 4.0 3 15
- 1.649013 0 2 tcp 592 ------- 1 0.0 4.0 3 15
+ 1.649013 0 2 tcp 592 ------- 1 0.0 4.0 4 16
+ 1.649013 0 2 tcp 592 ------- 1 0.0 4.0 5 17
- 1.651381 0 2 tcp 592 ------- 1 0.0 4.0 4 16
- 1.653749 0 2 tcp 592 ------- 1 0.0 4.0 5 17
r 1.656133 2 3 cbr 200 ------- 2 1.0 5.0 9 14
+ 1.656133 3 5 cbr 200 ------- 2 1.0 5.0 9 14
- 1.656133 3 5 cbr 200 ------- 2 1.0 5.0 9 14
r 1.661381 0 2 tcp 592 ------- 1 0.0 4.0 3 15
+ 1.661381 2 3 tcp 592 ------- 1 0.0 4.0 3 15
- 1.661381 2 3 tcp 592 ------- 1 0.0 4.0 3 15
r 1.663749 0 2 tcp 592 ------- 1 0.0 4.0 4 16
+ 1.663749 2 3 tcp 592 ------- 1 0.0 4.0 4 16
r 1.666117 0 2 tcp 592 ------- 1 0.0 4.0 5 17
+ 1.666117 2 3 tcp 592 ------- 1 0.0 4.0 5 17
- 1.677168 2 3 tcp 592 ------- 1 0.0 4.0 4 16
- 1.692955 2 3 tcp 592 ------- 1 0.0 4.0 5 17
r 1.699333 3 5 cbr 200 ------- 2 1.0 5.0 9 14
+ 1.7 1 2 cbr 200 ------- 2 1.0 5.0 10 18
- 1.7 1 2 cbr 200 ------- 2 1.0 5.0 10 18
r 1.7108 1 2 cbr 200 ------- 2 1.0 5.0 10 18
+ 1.7108 2 3 cbr 200 ------- 2 1.0 5.0 10 18
- 1.7108 2 3 cbr 200 ------- 2 1.0 5.0 10 18
r 1.777168 2 3 tcp 592 ------- 1 0.0 4.0 3 15
+ 1.777168 3 4 tcp 592 ------- 1 0.0 4.0 3 15
- 1.777168 3 4 tcp 592 ------- 1 0.0 4.0 3 15
r 1.792955 2 3 tcp 592 ------- 1 0.0 4.0 4 16
+ 1.792955 3 4 tcp 592 ------- 1 0.0 4.0 4 16
- 1.792955 3 4 tcp 592 ------- 1 0.0 4.0 4 16
r 1.808741 2 3 tcp 592 ------- 1 0.0 4.0 5 17
+ 1.808741 3 4 tcp 592 ------- 1 0.0 4.0 5 17
- 1.808741 3 4 tcp 592 ------- 1 0.0 4.0 5 17
r 1.816133 2 3 cbr 200 ------- 2 1.0 5.0 10 18
+ 1.816133 3 5 cbr 200 ------- 2 1.0 5.0 10 18
- 1.816133 3 5 cbr 200 ------- 2 1.0 5.0 10 18
r 1.82664 3 4 tcp 592 ------- 1 0.0 4.0 3 15
r 1.842427 3 4 tcp 592 ------- 1 0.0 4.0 4 16
+ 1.842427 4 3 ack 40 ------- 1 4.0 0.0 4 19
- 1.842427 4 3 ack 40 ------- 1 4.0 0.0 4 19
r 1.858213 3 4 tcp 592 ------- 1 0.0 4.0 5 17
r 1.859333 3 5 cbr 200 ------- 2 1.0 5.0 10 18
+ 1.86 1 2 cbr 200 ------- 2 1.0 5.0 11 20
- 1.86 1 2 cbr 200 ------- 2 1.0 5.0 11 20
r 1.8708 1 2 cbr 200 ------- 2 1.0 5.0 11 20
+ 1.8708 2 3 cbr 200 ------- 2 1.0 5.0 11 20
- 1.8708 2 3 cbr 200 ------- 2 1.0 5.0 11 20
r 1.883067 4 3 ack 40 ------- 1 4.0 0.0 4 19
+ 1.883067 3 2 ack 40 ------- 1 4.0 0.0 4 19
- 1.883067 3 2 ack 40 ------- 1 4.0 0.0 4 19
+ 1.958213 4 3 ack 40 ------- 1 4.0 0.0 5 21
- 1.958213 4 3 ack 40 ------- 1 4.0 0.0 5 21
r 1.976133 2 3 cbr 200 ------- 2 1.0 5.0 11 20
+ 1.976133 3 5 cbr 200 ------- 2 1.0 5.0 11 20
- 1.976133 3 5 cbr 200 ------- 2 1.0 5.0 11 20
r 1.984133 3 2 ack 40 ------- 1 4.0 0.0 4 19
+ 1.984133 2 0 ack 40 ------- 1 4.0 0.0 4 19
- 1.984133 2 0 ack 40 ------- 1 4.0 0.0 4 19
r 1.994293 2 0 ack 40 ------- 1 4.0 0.0 4 19
+ 1.994293 0 2 tcp 592 ------- 1 0.0 4.0 6 22
- 1.994293 0 2 tcp 592 ------- 1 0.0 4.0 6 22
+ 1.994293 0 2 tcp 592 ------- 1 0.0 4.0 7 23
+ 1.994293 0 2 tcp 592 ------- 1 0.0 4.0 8 24
- 1.996661 0 2 tcp 592 ------- 1 0.0 4.0 7 23
r 1.998853 4 3 ack 40 ------- 1 4.0 0.0 5 21
+ 1.998853 3 2 ack 40 ------- 1 4.0 0.0 5 21
- 1.998853 3 2 ack 40 ------- 1 4.0 0.0 5 21
- 1.999029 0 2 tcp 592 ------- 1 0.0 4.0 8 24
r 2.006661 0 2 tcp 592 ------- 1 0.0 4.0 6 22
+ 2.006661 2 3 tcp 592 ------- 1 0.0 4.0 6 22
- 2.006661 2 3 tcp 592 ------- 1 0.0 4.0 6 22
r 2.009029 0 2 tcp 592 ------- 1 0.0 4.0 7 23
+ 2.009029 2 3 tcp 592 ------- 1 0.0 4.0 7 23
r 2.011397 0 2 tcp 592 ------- 1 0.0 4.0 8 24
+ 2.011397 2 3 tcp 592 ------- 1 0.0 4.0 8 24
r 2.019333 3 5 cbr 200 ------- 2 1.0 5.0 11 20
+ 2.02 1 2 cbr 200 ------- 2 1.0 5.0 12 25
- 2.02 1 2 cbr 200 ------- 2 1.0 5.0 12 25
- 2.022448 2 3 tcp 592 ------- 1 0.0 4.0 7 23
r 2.0308 1 2 cbr 200 ------- 2 1.0 5.0 12 25
+ 2.0308 2 3 cbr 200 ------- 2 1.0 5.0 12 25
- 2.038235 2 3 tcp 592 ------- 1 0.0 4.0 8 24
- 2.054021 2 3 cbr 200 ------- 2 1.0 5.0 12 25
r 2.09992 3 2 ack 40 ------- 1 4.0 0.0 5 21
+ 2.09992 2 0 ack 40 ------- 1 4.0 0.0 5 21
- 2.09992 2 0 ack 40 ------- 1 4.0 0.0 5 21
r 2.11008 2 0 ack 40 ------- 1 4.0 0.0 5 21
+ 2.11008 0 2 tcp 592 ------- 1 0.0 4.0 9 26
- 2.11008 0 2 tcp 592 ------- 1 0.0 4.0 9 26
+ 2.11008 0 2 tcp 592 ------- 1 0.0 4.0 10 27
- 2.112448 0 2 tcp 592 ------- 1 0.0 4.0 10 27
r 2.122448 2 3 tcp 592 ------- 1 0.0 4.0 6 22
+ 2.122448 3 4 tcp 592 ------- 1 0.0 4.0 6 22
- 2.122448 3 4 tcp 592 ------- 1 0.0 4.0 6 22
r 2.122448 0 2 tcp 592 ------- 1 0.0 4.0 9 26
+ 2.122448 2 3 tcp 592 ------- 1 0.0 4.0 9 26
- 2.122448 2 3 tcp 592 ------- 1 0.0 4.0 9 26
r 2.124816 0 2 tcp 592 ------- 1 0.0 4.0 10 27
+ 2.124816 2 3 tcp 592 ------- 1 0.0 4.0 10 27
r 2.138235 2 3 tcp 592 ------- 1 0.0 4.0 7 23
+ 2.138235 3 4 tcp 592 ------- 1 0.0 4.0 7 23
- 2.138235 3 4 tcp 592 ------- 1 0.0 4.0 7 23
- 2.138235 2 3 tcp 592 ------- 1 0.0 4.0 10 27
r 2.154021 2 3 tcp 592 ------- 1 0.0 4.0 8 24
+ 2.154021 3 4 tcp 592 ------- 1 0.0 4.0 8 24
- 2.154021 3 4 tcp 592 ------- 1 0.0 4.0 8 24
r 2.159355 2 3 cbr 200 ------- 2 1.0 5.0 12 25
+ 2.159355 3 5 cbr 200 ------- 2 1.0 5.0 12 25
- 2.159355 3 5 cbr 200 ------- 2 1.0 5.0 12 25
r 2.17192 3 4 tcp 592 ------- 1 0.0 4.0 6 22
+ 2.18 1 2 cbr 200 ------- 2 1.0 5.0 13 28
- 2.18 1 2 cbr 200 ------- 2 1.0 5.0 13 28
r 2.187707 3 4 tcp 592 ------- 1 0.0 4.0 7 23
+ 2.187707 4 3 ack 40 ------- 1 4.0 0.0 7 29
- 2.187707 4 3 ack 40 ------- 1 4.0 0.0 7 29
r 2.1908 1 2 cbr 200 ------- 2 1.0 5.0 13 28
+ 2.1908 2 3 cbr 200 ------- 2 1.0 5.0 13 28
- 2.1908 2 3 cbr 200 ------- 2 1.0 5.0 13 28
r 2.202555 3 5 cbr 200 ------- 2 1.0 5.0 12 25
r 2.203493 3 4 tcp 592 ------- 1 0.0 4.0 8 24
r 2.228347 4 3 ack 40 ------- 1 4.0 0.0 7 29
+ 2.228347 3 2 ack 40 ------- 1 4.0 0.0 7 29
- 2.228347 3 2 ack 40 ------- 1 4.0 0.0 7 29
r 2.238235 2 3 tcp 592 ------- 1 0.0 4.0 9 26
+ 2.238235 3 4 tcp 592 ------- 1 0.0 4.0 9 26
- 2.238235 3 4 tcp 592 ------- 1 0.0 4.0 9 26
r 2.254021 2 3 tcp 592 ------- 1 0.0 4.0 10 27
+ 2.254021 3 4 tcp 592 ------- 1 0.0 4.0 10 27
- 2.254021 3 4 tcp 592 ------- 1 0.0 4.0 10 27
r 2.287707 3 4 tcp 592 ------- 1 0.0 4.0 9 26
+ 2.287707 4 3 ack 40 ------- 1 4.0 0.0 9 30
- 2.287707 4 3 ack 40 ------- 1 4.0 0.0 9 30
r 2.296133 2 3 cbr 200 ------- 2 1.0 5.0 13 28
+ 2.296133 3 5 cbr 200 ------- 2 1.0 5.0 13 28
- 2.296133 3 5 cbr 200 ------- 2 1.0 5.0 13 28
r 2.303493 3 4 tcp 592 ------- 1 0.0 4.0 10 27
r 2.328347 4 3 ack 40 ------- 1 4.0 0.0 9 30
+ 2.328347 3 2 ack 40 ------- 1 4.0 0.0 9 30
- 2.328347 3 2 ack 40 ------- 1 4.0 0.0 9 30
r 2.329413 3 2 ack 40 ------- 1 4.0 0.0 7 29
+ 2.329413 2 0 ack 40 ------- 1 4.0 0.0 7 29
- 2.329413 2 0 ack 40 ------- 1 4.0 0.0 7 29
r 2.339333 3 5 cbr 200 ------- 2 1.0 5.0 13 28
r 2.339573 2 0 ack 40 ------- 1 4.0 0.0 7 29
+ 2.339573 0 2 tcp 592 ------- 1 0.0 4.0 11 31
- 2.339573 0 2 tcp 592 ------- 1 0.0 4.0 11 31
+ 2.339573 0 2 tcp 592 ------- 1 0.0 4.0 12 32
+ 2.339573 0 2 tcp 592 ------- 1 0.0 4.0 13 33
+ 2.34 1 2 cbr 200 ------- 2 1.0 5.0 14 34
- 2.34 1 2 cbr 200 ------- 2 1.0 5.0 14 34
- 2.341941 0 2 tcp 592 ------- 1 0.0 4.0 12 32
- 2.344309 0 2 tcp 592 ------- 1 0.0 4.0 13 33
r 2.3508 1 2 cbr 200 ------- 2 1.0 5.0 14 34
+ 2.3508 2 3 cbr 200 ------- 2 1.0 5.0 14 34
- 2.3508 2 3 cbr 200 ------- 2 1.0 5.0 14 34
r 2.351941 0 2 tcp 592 ------- 1 0.0 4.0 11 31
+ 2.351941 2 3 tcp 592 ------- 1 0.0 4.0 11 31
r 2.354309 0 2 tcp 592 ------- 1 0.0 4.0 12 32
+ 2.354309 2 3 tcp 592 ------- 1 0.0 4.0 12 32
- 2.356133 2 3 tcp 592 ------- 1 0.0 4.0 11 31
r 2.356677 0 2 tcp 592 ------- 1 0.0 4.0 13 33
+ 2.356677 2 3 tcp 592 ------- 1 0.0 4.0 13 33
- 2.37192 2 3 tcp 592 ------- 1 0.0 4.0 12 32
- 2.387707 2 3 tcp 592 ------- 1 0.0 4.0 13 33
+ 2.403493 4 3 ack 40 ------- 1 4.0 0.0 10 35
- 2.403493 4 3 ack 40 ------- 1 4.0 0.0 10 35
r 2.429413 3 2 ack 40 ------- 1 4.0 0.0 9 30
+ 2.429413 2 0 ack 40 ------- 1 4.0 0.0 9 30
- 2.429413 2 0 ack 40 ------- 1 4.0 0.0 9 30
r 2.439573 2 0 ack 40 ------- 1 4.0 0.0 9 30
+ 2.439573 0 2 tcp 592 ------- 1 0.0 4.0 14 36
- 2.439573 0 2 tcp 592 ------- 1 0.0 4.0 14 36
+ 2.439573 0 2 tcp 592 ------- 1 0.0 4.0 15 37
+ 2.439573 0 2 tcp 592 ------- 1 0.0 4.0 16 38
- 2.441941 0 2 tcp 592 ------- 1 0.0 4.0 15 37
r 2.444133 4 3 ack 40 ------- 1 4.0 0.0 10 35
+ 2.444133 3 2 ack 40 ------- 1 4.0 0.0 10 35
- 2.444133 3 2 ack 40 ------- 1 4.0 0.0 10 35
- 2.444309 0 2 tcp 592 ------- 1 0.0 4.0 16 38
r 2.451941 0 2 tcp 592 ------- 1 0.0 4.0 14 36
+ 2.451941 2 3 tcp 592 ------- 1 0.0 4.0 14 36
- 2.451941 2 3 tcp 592 ------- 1 0.0 4.0 14 36
r 2.454309 0 2 tcp 592 ------- 1 0.0 4.0 15 37
+ 2.454309 2 3 tcp 592 ------- 1 0.0 4.0 15 37
r 2.456133 2 3 cbr 200 ------- 2 1.0 5.0 14 34
+ 2.456133 3 5 cbr 200 ------- 2 1.0 5.0 14 34
- 2.456133 3 5 cbr 200 ------- 2 1.0 5.0 14 34
r 2.456677 0 2 tcp 592 ------- 1 0.0 4.0 16 38
+ 2.456677 2 3 tcp 592 ------- 1 0.0 4.0 16 38
- 2.467728 2 3 tcp 592 ------- 1 0.0 4.0 15 37
r 2.47192 2 3 tcp 592 ------- 1 0.0 4.0 11 31
+ 2.47192 3 4 tcp 592 ------- 1 0.0 4.0 11 31
- 2.47192 3 4 tcp 592 ------- 1 0.0 4.0 11 31
- 2.483515 2 3 tcp 592 ------- 1 0.0 4.0 16 38
r 2.487707 2 3 tcp 592 ------- 1 0.0 4.0 12 32
+ 2.487707 3 4 tcp 592 ------- 1 0.0 4.0 12 32
- 2.487707 3 4 tcp 592 ------- 1 0.0 4.0 12 32
r 2.499333 3 5 cbr 200 ------- 2 1.0 5.0 14 34
+ 2.5 1 2 cbr 200 ------- 2 1.0 5.0 15 39
- 2.5 1 2 cbr 200 ------- 2 1.0 5.0 15 39
r 2.503493 2 3 tcp 592 ------- 1 0.0 4.0 13 33
+ 2.503493 3 4 tcp 592 ------- 1 0.0 4.0 13 33
- 2.503493 3 4 tcp 592 ------- 1 0.0 4.0 13 33
r 2.5108 1 2 cbr 200 ------- 2 1.0 5.0 15 39
+ 2.5108 2 3 cbr 200 ------- 2 1.0 5.0 15 39
- 2.5108 2 3 cbr 200 ------- 2 1.0 5.0 15 39
r 2.521392 3 4 tcp 592 ------- 1 0.0 4.0 11 31
r 2.537179 3 4 tcp 592 ------- 1 0.0 4.0 12 32
+ 2.537179 4 3 ack 40 ------- 1 4.0 0.0 12 40
- 2.537179 4 3 ack 40 ------- 1 4.0 0.0 12 40
r 2.5452 3 2 ack 40 ------- 1 4.0 0.0 10 35
+ 2.5452 2 0 ack 40 ------- 1 4.0 0.0 10 35
- 2.5452 2 0 ack 40 ------- 1 4.0 0.0 10 35
r 2.552965 3 4 tcp 592 ------- 1 0.0 4.0 13 33
r 2.55536 2 0 ack 40 ------- 1 4.0 0.0 10 35
+ 2.55536 0 2 tcp 592 ------- 1 0.0 4.0 17 41
- 2.55536 0 2 tcp 592 ------- 1 0.0 4.0 17 41
+ 2.55536 0 2 tcp 592 ------- 1 0.0 4.0 18 42
- 2.557728 0 2 tcp 592 ------- 1 0.0 4.0 18 42
r 2.567728 2 3 tcp 592 ------- 1 0.0 4.0 14 36
+ 2.567728 3 4 tcp 592 ------- 1 0.0 4.0 14 36
- 2.567728 3 4 tcp 592 ------- 1 0.0 4.0 14 36
r 2.567728 0 2 tcp 592 ------- 1 0.0 4.0 17 41
+ 2.567728 2 3 tcp 592 ------- 1 0.0 4.0 17 41
- 2.567728 2 3 tcp 592 ------- 1 0.0 4.0 17 41
r 2.570096 0 2 tcp 592 ------- 1 0.0 4.0 18 42
+ 2.570096 2 3 tcp 592 ------- 1 0.0 4.0 18 42
r 2.577819 4 3 ack 40 ------- 1 4.0 0.0 12 40
+ 2.577819 3 2 ack 40 ------- 1 4.0 0.0 12 40
- 2.577819 3 2 ack 40 ------- 1 4.0 0.0 12 40
r 2.583515 2 3 tcp 592 ------- 1 0.0 4.0 15 37
+ 2.583515 3 4 tcp 592 ------- 1 0.0 4.0 15 37
- 2.583515 3 4 tcp 592 ------- 1 0.0 4.0 15 37
- 2.583515 2 3 tcp 592 ------- 1 0.0 4.0 18 42
r 2.599301 2 3 tcp 592 ------- 1 0.0 4.0 16 38
+ 2.599301 3 4 tcp 592 ------- 1 0.0 4.0 16 38
- 2.599301 3 4 tcp 592 ------- 1 0.0 4.0 16 38
r 2.616133 2 3 cbr 200 ------- 2 1.0 5.0 15 39
+ 2.616133 3 5 cbr 200 ------- 2 1.0 5.0 15 39
- 2.616133 3 5 cbr 200 ------- 2 1.0 5.0 15 39
r 2.6172 3 4 tcp 592 ------- 1 0.0 4.0 14 36
+ 2.6172 4 3 ack 40 ------- 1 4.0 0.0 14 43
- 2.6172 4 3 ack 40 ------- 1 4.0 0.0 14 43
r 2.632987 3 4 tcp 592 ------- 1 0.0 4.0 15 37
r 2.648773 3 4 tcp 592 ------- 1 0.0 4.0 16 38
+ 2.648773 4 3 ack 40 ------- 1 4.0 0.0 16 44
- 2.648773 4 3 ack 40 ------- 1 4.0 0.0 16 44
r 2.65784 4 3 ack 40 ------- 1 4.0 0.0 14 43
+ 2.65784 3 2 ack 40 ------- 1 4.0 0.0 14 43
- 2.65784 3 2 ack 40 ------- 1 4.0 0.0 14 43
r 2.659333 3 5 cbr 200 ------- 2 1.0 5.0 15 39
+ 2.66 1 2 cbr 200 ------- 2 1.0 5.0 16 45
- 2.66 1 2 cbr 200 ------- 2 1.0 5.0 16 45
r 2.6708 1 2 cbr 200 ------- 2 1.0 5.0 16 45
+ 2.6708 2 3 cbr 200 ------- 2 1.0 5.0 16 45
- 2.6708 2 3 cbr 200 ------- 2 1.0 5.0 16 45
r 2.678885 3 2 ack 40 ------- 1 4.0 0.0 12 40
+ 2.678885 2 0 ack 40 ------- 1 4.0 0.0 12 40
- 2.678885 2 0 ack 40 ------- 1 4.0 0.0 12 40
r 2.683515 2 3 tcp 592 ------- 1 0.0 4.0 17 41
+ 2.683515 3 4 tcp 592 ------- 1 0.0 4.0 17 41
- 2.683515 3 4 tcp 592 ------- 1 0.0 4.0 17 41
r 2.689045 2 0 ack 40 ------- 1 4.0 0.0 12 40
+ 2.689045 0 2 tcp 592 ------- 1 0.0 4.0 19 46
- 2.689045 0 2 tcp 592 ------- 1 0.0 4.0 19 46
+ 2.689045 0 2 tcp 592 ------- 1 0.0 4.0 20 47
+ 2.689045 0 2 tcp 592 ------- 1 0.0 4.0 21 48
r 2.689413 4 3 ack 40 ------- 1 4.0 0.0 16 44
+ 2.689413 3 2 ack 40 ------- 1 4.0 0.0 16 44
- 2.689413 3 2 ack 40 ------- 1 4.0 0.0 16 44
- 2.691413 0 2 tcp 592 ------- 1 0.0 4.0 20 47
- 2.693781 0 2 tcp 592 ------- 1 0.0 4.0 21 48
r 2.699301 2 3 tcp 592 ------- 1 0.0 4.0 18 42
+ 2.699301 3 4 tcp 592 ------- 1 0.0 4.0 18 42
- 2.699301 3 4 tcp 592 ------- 1 0.0 4.0 18 42
r 2.701413 0 2 tcp 592 ------- 1 0.0 4.0 19 46
+ 2.701413 2 3 tcp 592 ------- 1 0.0 4.0 19 46
- 2.701413 2 3 tcp 592 ------- 1 0.0 4.0 19 46
r 2.703781 0 2 tcp 592 ------- 1 0.0 4.0 20 47
+ 2.703781 2 3 tcp 592 ------- 1 0.0 4.0 20 47
r 2.706149 0 2 tcp 592 ------- 1 0.0 4.0 21 48
+ 2.706149 2 3 tcp 592 ------- 1 0.0 4.0 21 48
- 2.7172 2 3 tcp 592 ------- 1 0.0 4.0 20 47
r 2.732987 3 4 tcp 592 ------- 1 0.0 4.0 17 41
- 2.732987 2 3 tcp 592 ------- 1 0.0 4.0 21 48
r 2.748773 3 4 tcp 592 ------- 1 0.0 4.0 18 42
+ 2.748773 4 3 ack 40 ------- 1 4.0 0.0 18 49
- 2.748773 4 3 ack 40 ------- 1 4.0 0.0 18 49
r 2.758907 3 2 ack 40 ------- 1 4.0 0.0 14 43
+ 2.758907 2 0 ack 40 ------- 1 4.0 0.0 14 43
- 2.758907 2 0 ack 40 ------- 1 4.0 0.0 14 43
r 2.769067 2 0 ack 40 ------- 1 4.0 0.0 14 43
+ 2.769067 0 2 tcp 592 ------- 1 0.0 4.0 22 50
- 2.769067 0 2 tcp 592 ------- 1 0.0 4.0 22 50
+ 2.769067 0 2 tcp 592 ------- 1 0.0 4.0 23 51
+ 2.769067 0 2 tcp 592 ------- 1 0.0 4.0 24 52
- 2.771435 0 2 tcp 592 ------- 1 0.0 4.0 23 51
- 2.773803 0 2 tcp 592 ------- 1 0.0 4.0 24 52
r 2.776133 2 3 cbr 200 ------- 2 1.0 5.0 16 45
+ 2.776133 3 5 cbr 200 ------- 2 1.0 5.0 16 45
- 2.776133 3 5 cbr 200 ------- 2 1.0 5.0 16 45
r 2.781435 0 2 tcp 592 ------- 1 0.0 4.0 22 50
+ 2.781435 2 3 tcp 592 ------- 1 0.0 4.0 22 50
- 2.781435 2 3 tcp 592 ------- 1 0.0 4.0 22 50
r 2.783803 0 2 tcp 592 ------- 1 0.0 4.0 23 51
+ 2.783803 2 3 tcp 592 ------- 1 0.0 4.0 23 51
r 2.786171 0 2 tcp 592 ------- 1 0.0 4.0 24 52
+ 2.786171 2 3 tcp 592 ------- 1 0.0 4.0 24 52
r 2.789413 4 3 ack 40 ------- 1 4.0 0.0 18 49
+ 2.789413 3 2 ack 40 ------- 1 4.0 0.0 18 49
- 2.789413 3 2 ack 40 ------- 1 4.0 0.0 18 49
r 2.79048 3 2 ack 40 ------- 1 4.0 0.0 16 44
+ 2.79048 2 0 ack 40 ------- 1 4.0 0.0 16 44
- 2.79048 2 0 ack 40 ------- 1 4.0 0.0 16 44
- 2.797221 2 3 tcp 592 ------- 1 0.0 4.0 23 51
r 2.80064 2 0 ack 40 ------- 1 4.0 0.0 16 44
+ 2.80064 0 2 tcp 592 ------- 1 0.0 4.0 25 53
- 2.80064 0 2 tcp 592 ------- 1 0.0 4.0 25 53
+ 2.80064 0 2 tcp 592 ------- 1 0.0 4.0 26 54
+ 2.80064 0 2 tcp 592 ------- 1 0.0 4.0 27 55
- 2.803008 0 2 tcp 592 ------- 1 0.0 4.0 26 54
- 2.805376 0 2 tcp 592 ------- 1 0.0 4.0 27 55
- 2.813008 2 3 tcp 592 ------- 1 0.0 4.0 24 52
r 2.813008 0 2 tcp 592 ------- 1 0.0 4.0 25 53
+ 2.813008 2 3 tcp 592 ------- 1 0.0 4.0 25 53
r 2.815376 0 2 tcp 592 ------- 1 0.0 4.0 26 54
+ 2.815376 2 3 tcp 592 ------- 1 0.0 4.0 26 54
r 2.8172 2 3 tcp 592 ------- 1 0.0 4.0 19 46
+ 2.8172 3 4 tcp 592 ------- 1 0.0 4.0 19 46
- 2.8172 3 4 tcp 592 ------- 1 0.0 4.0 19 46
r 2.817744 0 2 tcp 592 ------- 1 0.0 4.0 27 55
+ 2.817744 2 3 tcp 592 ------- 1 0.0 4.0 27 55
r 2.819333 3 5 cbr 200 ------- 2 1.0 5.0 16 45
+ 2.82 1 2 cbr 200 ------- 2 1.0 5.0 17 56
- 2.82 1 2 cbr 200 ------- 2 1.0 5.0 17 56
- 2.828795 2 3 tcp 592 ------- 1 0.0 4.0 25 53
r 2.8308 1 2 cbr 200 ------- 2 1.0 5.0 17 56
+ 2.8308 2 3 cbr 200 ------- 2 1.0 5.0 17 56
r 2.832987 2 3 tcp 592 ------- 1 0.0 4.0 20 47
+ 2.832987 3 4 tcp 592 ------- 1 0.0 4.0 20 47
- 2.832987 3 4 tcp 592 ------- 1 0.0 4.0 20 47
- 2.844581 2 3 tcp 592 ------- 1 0.0 4.0 26 54
r 2.848773 2 3 tcp 592 ------- 1 0.0 4.0 21 48
+ 2.848773 3 4 tcp 592 ------- 1 0.0 4.0 21 48
- 2.848773 3 4 tcp 592 ------- 1 0.0 4.0 21 48
- 2.860368 2 3 tcp 592 ------- 1 0.0 4.0 27 55
r 2.866672 3 4 tcp 592 ------- 1 0.0 4.0 19 46
- 2.876155 2 3 cbr 200 ------- 2 1.0 5.0 17 56
r 2.882459 3 4 tcp 592 ------- 1 0.0 4.0 20 47
+ 2.882459 4 3 ack 40 ------- 1 4.0 0.0 20 57
- 2.882459 4 3 ack 40 ------- 1 4.0 0.0 20 57
r 2.89048 3 2 ack 40 ------- 1 4.0 0.0 18 49
+ 2.89048 2 0 ack 40 ------- 1 4.0 0.0 18 49
- 2.89048 2 0 ack 40 ------- 1 4.0 0.0 18 49
r 2.897221 2 3 tcp 592 ------- 1 0.0 4.0 22 50
+ 2.897221 3 4 tcp 592 ------- 1 0.0 4.0 22 50
- 2.897221 3 4 tcp 592 ------- 1 0.0 4.0 22 50
r 2.898245 3 4 tcp 592 ------- 1 0.0 4.0 21 48
r 2.90064 2 0 ack 40 ------- 1 4.0 0.0 18 49
+ 2.90064 0 2 tcp 592 ------- 1 0.0 4.0 28 58
- 2.90064 0 2 tcp 592 ------- 1 0.0 4.0 28 58
+ 2.90064 0 2 tcp 592 ------- 1 0.0 4.0 29 59
+ 2.90064 0 2 tcp 592 ------- 1 0.0 4.0 30 60
- 2.903008 0 2 tcp 592 ------- 1 0.0 4.0 29 59
- 2.905376 0 2 tcp 592 ------- 1 0.0 4.0 30 60
r 2.913008 2 3 tcp 592 ------- 1 0.0 4.0 23 51
+ 2.913008 3 4 tcp 592 ------- 1 0.0 4.0 23 51
- 2.913008 3 4 tcp 592 ------- 1 0.0 4.0 23 51
r 2.913008 0 2 tcp 592 ------- 1 0.0 4.0 28 58
+ 2.913008 2 3 tcp 592 ------- 1 0.0 4.0 28 58
- 2.913008 2 3 tcp 592 ------- 1 0.0 4.0 28 58
r 2.915376 0 2 tcp 592 ------- 1 0.0 4.0 29 59
+ 2.915376 2 3 tcp 592 ------- 1 0.0 4.0 29 59
r 2.917744 0 2 tcp 592 ------- 1 0.0 4.0 30 60
+ 2.917744 2 3 tcp 592 ------- 1 0.0 4.0 30 60
r 2.923099 4 3 ack 40 ------- 1 4.0 0.0 20 57
+ 2.923099 3 2 ack 40 ------- 1 4.0 0.0 20 57
- 2.923099 3 2 ack 40 ------- 1 4.0 0.0 20 57
r 2.928795 2 3 tcp 592 ------- 1 0.0 4.0 24 52
+ 2.928795 3 4 tcp 592 ------- 1 0.0 4.0 24 52
- 2.928795 3 4 tcp 592 ------- 1 0.0 4.0 24 52
- 2.928795 2 3 tcp 592 ------- 1 0.0 4.0 29 59
r 2.944581 2 3 tcp 592 ------- 1 0.0 4.0 25 53
+ 2.944581 3 4 tcp 592 ------- 1 0.0 4.0 25 53
- 2.944581 3 4 tcp 592 ------- 1 0.0 4.0 25 53
- 2.944581 2 3 tcp 592 ------- 1 0.0 4.0 30 60
r 2.946693 3 4 tcp 592 ------- 1 0.0 4.0 22 50
+ 2.946693 4 3 ack 40 ------- 1 4.0 0.0 22 61
- 2.946693 4 3 ack 40 ------- 1 4.0 0.0 22 61
r 2.960368 2 3 tcp 592 ------- 1 0.0 4.0 26 54
+ 2.960368 3 4 tcp 592 ------- 1 0.0 4.0 26 54
- 2.960368 3 4 tcp 592 ------- 1 0.0 4.0 26 54
r 2.96248 3 4 tcp 592 ------- 1 0.0 4.0 23 51
r 2.976155 2 3 tcp 592 ------- 1 0.0 4.0 27 55
+ 2.976155 3 4 tcp 592 ------- 1 0.0 4.0 27 55
- 2.976155 3 4 tcp 592 ------- 1 0.0 4.0 27 55
r 2.978267 3 4 tcp 592 ------- 1 0.0 4.0 24 52
+ 2.978267 4 3 ack 40 ------- 1 4.0 0.0 24 62
- 2.978267 4 3 ack 40 ------- 1 4.0 0.0 24 62
+ 2.98 1 2 cbr 200 ------- 2 1.0 5.0 18 63
- 2.98 1 2 cbr 200 ------- 2 1.0 5.0 18 63
r 2.981488 2 3 cbr 200 ------- 2 1.0 5.0 17 56
+ 2.981488 3 5 cbr 200 ------- 2 1.0 5.0 17 56
- 2.981488 3 5 cbr 200 ------- 2 1.0 5.0 17 56
r 2.987333 4 3 ack 40 ------- 1 4.0 0.0 22 61
+ 2.987333 3 2 ack 40 ------- 1 4.0 0.0 22 61
- 2.987333 3 2 ack 40 ------- 1 4.0 0.0 22 61
r 2.9908 1 2 cbr 200 ------- 2 1.0 5.0 18 63
+ 2.9908 2 3 cbr 200 ------- 2 1.0 5.0 18 63
- 2.9908 2 3 cbr 200 ------- 2 1.0 5.0 18 63
r 2.994053 3 4 tcp 592 ------- 1 0.0 4.0 25 53
r 3.00984 3 4 tcp 592 ------- 1 0.0 4.0 26 54
+ 3.00984 4 3 ack 40 ------- 1 4.0 0.0 26 64
- 3.00984 4 3 ack 40 ------- 1 4.0 0.0 26 64
r 3.018907 4 3 ack 40 ------- 1 4.0 0.0 24 62
+ 3.018907 3 2 ack 40 ------- 1 4.0 0.0 24 62
- 3.018907 3 2 ack 40 ------- 1 4.0 0.0 24 62
r 3.024165 3 2 ack 40 ------- 1 4.0 0.0 20 57
+ 3.024165 2 0 ack 40 ------- 1 4.0 0.0 20 57
- 3.024165 2 0 ack 40 ------- 1 4.0 0.0 20 57
r 3.024688 3 5 cbr 200 ------- 2 1.0 5.0 17 56
r 3.025627 3 4 tcp 592 ------- 1 0.0 4.0 27 55
r 3.028795 2 3 tcp 592 ------- 1 0.0 4.0 28 58
+ 3.028795 3 4 tcp 592 ------- 1 0.0 4.0 28 58
- 3.028795 3 4 tcp 592 ------- 1 0.0 4.0 28 58
r 3.034325 2 0 ack 40 ------- 1 4.0 0.0 20 57
+ 3.034325 0 2 tcp 592 ------- 1 0.0 4.0 31 65
- 3.034325 0 2 tcp 592 ------- 1 0.0 4.0 31 65
+ 3.034325 0 2 tcp 592 ------- 1 0.0 4.0 32 66
+ 3.034325 0 2 tcp 592 ------- 1 0.0 4.0 33 67
- 3.036693 0 2 tcp 592 ------- 1 0.0 4.0 32 66
- 3.039061 0 2 tcp 592 ------- 1 0.0 4.0 33 67
r 3.044581 2 3 tcp 592 ------- 1 0.0 4.0 29 59
+ 3.044581 3 4 tcp 592 ------- 1 0.0 4.0 29 59
- 3.044581 3 4 tcp 592 ------- 1 0.0 4.0 29 59
r 3.046693 0 2 tcp 592 ------- 1 0.0 4.0 31 65
+ 3.046693 2 3 tcp 592 ------- 1 0.0 4.0 31 65
- 3.046693 2 3 tcp 592 ------- 1 0.0 4.0 31 65
r 3.049061 0 2 tcp 592 ------- 1 0.0 4.0 32 66
+ 3.049061 2 3 tcp 592 ------- 1 0.0 4.0 32 66
r 3.05048 4 3 ack 40 ------- 1 4.0 0.0 26 64
+ 3.05048 3 2 ack 40 ------- 1 4.0 0.0 26 64
- 3.05048 3 2 ack 40 ------- 1 4.0 0.0 26 64
r 3.051429 0 2 tcp 592 ------- 1 0.0 4.0 33 67
+ 3.051429 2 3 tcp 592 ------- 1 0.0 4.0 33 67
r 3.060368 2 3 tcp 592 ------- 1 0.0 4.0 30 60
+ 3.060368 3 4 tcp 592 ------- 1 0.0 4.0 30 60
- 3.060368 3 4 tcp 592 ------- 1 0.0 4.0 30 60
- 3.06248 2 3 tcp 592 ------- 1 0.0 4.0 32 66
r 3.078267 3 4 tcp 592 ------- 1 0.0 4.0 28 58
+ 3.078267 4 3 ack 40 ------- 1 4.0 0.0 28 68
- 3.078267 4 3 ack 40 ------- 1 4.0 0.0 28 68
- 3.078267 2 3 tcp 592 ------- 1 0.0 4.0 33 67
r 3.0884 3 2 ack 40 ------- 1 4.0 0.0 22 61
+ 3.0884 2 0 ack 40 ------- 1 4.0 0.0 22 61
- 3.0884 2 0 ack 40 ------- 1 4.0 0.0 22 61
r 3.094053 3 4 tcp 592 ------- 1 0.0 4.0 29 59
r 3.096133 2 3 cbr 200 ------- 2 1.0 5.0 18 63
+ 3.096133 3 5 cbr 200 ------- 2 1.0 5.0 18 63
- 3.096133 3 5 cbr 200 ------- 2 1.0 5.0 18 63
r 3.09856 2 0 ack 40 ------- 1 4.0 0.0 22 61
+ 3.09856 0 2 tcp 592 ------- 1 0.0 4.0 34 69
- 3.09856 0 2 tcp 592 ------- 1 0.0 4.0 34 69
+ 3.09856 0 2 tcp 592 ------- 1 0.0 4.0 35 70
+ 3.09856 0 2 tcp 592 ------- 1 0.0 4.0 36 71
- 3.100928 0 2 tcp 592 ------- 1 0.0 4.0 35 70
- 3.103296 0 2 tcp 592 ------- 1 0.0 4.0 36 71
r 3.10984 3 4 tcp 592 ------- 1 0.0 4.0 30 60
+ 3.10984 4 3 ack 40 ------- 1 4.0 0.0 30 72
- 3.10984 4 3 ack 40 ------- 1 4.0 0.0 30 72
r 3.110928 0 2 tcp 592 ------- 1 0.0 4.0 34 69
+ 3.110928 2 3 tcp 592 ------- 1 0.0 4.0 34 69
- 3.110928 2 3 tcp 592 ------- 1 0.0 4.0 34 69
r 3.113296 0 2 tcp 592 ------- 1 0.0 4.0 35 70
+ 3.113296 2 3 tcp 592 ------- 1 0.0 4.0 35 70
r 3.115664 0 2 tcp 592 ------- 1 0.0 4.0 36 71
+ 3.115664 2 3 tcp 592 ------- 1 0.0 4.0 36 71
r 3.118907 4 3 ack 40 ------- 1 4.0 0.0 28 68
+ 3.118907 3 2 ack 40 ------- 1 4.0 0.0 28 68
- 3.118907 3 2 ack 40 ------- 1 4.0 0.0 28 68
r 3.119973 3 2 ack 40 ------- 1 4.0 0.0 24 62
+ 3.119973 2 0 ack 40 ------- 1 4.0 0.0 24 62
- 3.119973 2 0 ack 40 ------- 1 4.0 0.0 24 62
- 3.126715 2 3 tcp 592 ------- 1 0.0 4.0 35 70
r 3.130133 2 0 ack 40 ------- 1 4.0 0.0 24 62
+ 3.130133 0 2 tcp 592 ------- 1 0.0 4.0 37 73
- 3.130133 0 2 tcp 592 ------- 1 0.0 4.0 37 73
+ 3.130133 0 2 tcp 592 ------- 1 0.0 4.0 38 74
+ 3.130133 0 2 tcp 592 ------- 1 0.0 4.0 39 75
- 3.132501 0 2 tcp 592 ------- 1 0.0 4.0 38 74
- 3.134869 0 2 tcp 592 ------- 1 0.0 4.0 39 75
r 3.139333 3 5 cbr 200 ------- 2 1.0 5.0 18 63
+ 3.14 1 2 cbr 200 ------- 2 1.0 5.0 19 76
- 3.14 1 2 cbr 200 ------- 2 1.0 5.0 19 76
- 3.142501 2 3 tcp 592 ------- 1 0.0 4.0 36 71
r 3.142501 0 2 tcp 592 ------- 1 0.0 4.0 37 73
+ 3.142501 2 3 tcp 592 ------- 1 0.0 4.0 37 73
r 3.144869 0 2 tcp 592 ------- 1 0.0 4.0 38 74
+ 3.144869 2 3 tcp 592 ------- 1 0.0 4.0 38 74
r 3.147237 0 2 tcp 592 ------- 1 0.0 4.0 39 75
+ 3.147237 2 3 tcp 592 ------- 1 0.0 4.0 39 75
r 3.15048 4 3 ack 40 ------- 1 4.0 0.0 30 72
+ 3.15048 3 2 ack 40 ------- 1 4.0 0.0 30 72
- 3.15048 3 2 ack 40 ------- 1 4.0 0.0 30 72
r 3.1508 1 2 cbr 200 ------- 2 1.0 5.0 19 76
+ 3.1508 2 3 cbr 200 ------- 2 1.0 5.0 19 76
r 3.151547 3 2 ack 40 ------- 1 4.0 0.0 26 64
+ 3.151547 2 0 ack 40 ------- 1 4.0 0.0 26 64
- 3.151547 2 0 ack 40 ------- 1 4.0 0.0 26 64
- 3.158288 2 3 tcp 592 ------- 1 0.0 4.0 37 73
r 3.161707 2 0 ack 40 ------- 1 4.0 0.0 26 64
+ 3.161707 0 2 tcp 592 ------- 1 0.0 4.0 40 77
- 3.161707 0 2 tcp 592 ------- 1 0.0 4.0 40 77
+ 3.161707 0 2 tcp 592 ------- 1 0.0 4.0 41 78
+ 3.161707 0 2 tcp 592 ------- 1 0.0 4.0 42 79
r 3.16248 2 3 tcp 592 ------- 1 0.0 4.0 31 65
+ 3.16248 3 4 tcp 592 ------- 1 0.0 4.0 31 65
- 3.16248 3 4 tcp 592 ------- 1 0.0 4.0 31 65
- 3.164075 0 2 tcp 592 ------- 1 0.0 4.0 41 78
- 3.166443 0 2 tcp 592 ------- 1 0.0 4.0 42 79
- 3.174075 2 3 tcp 592 ------- 1 0.0 4.0 38 74
r 3.174075 0 2 tcp 592 ------- 1 0.0 4.0 40 77
+ 3.174075 2 3 tcp 592 ------- 1 0.0 4.0 40 77
r 3.176443 0 2 tcp 592 ------- 1 0.0 4.0 41 78
+ 3.176443 2 3 tcp 592 ------- 1 0.0 4.0 41 78