V -t * -v 1.0a5 -a 0
A -t * -n 1 -p 0 -o 0x7fffffff -c 30 -a 1
A -t * -h 1 -m 1073741823 -s 0
c -t * -i 0 -n blue
c -t * -i 1 -n red
n -t * -a 0 -s 0 -S UP -v circle -c black -i black
n -t * -a 1 -s 1 -S UP -v circle -c black -i black
n -t * -a 2 -s 2 -S UP -v circle -c black -i black
n -t * -a 3 -s 3 -S UP -v circle -c black -i black
n -t * -a 4 -s 4 -S UP -v circle -c black -i black
n -t * -a 5 -s 5 -S UP -v circle -c black -i black
n -t * -a 6 -s 6 -S UP -v circle -c black -i black
n -t * -a 7 -s 7 -S UP -v circle -c black -i black
n -t * -a 8 -s 8 -S UP -v circle -c black -i black
n -t * -a 9 -s 9 -S UP -v circle -c black -i black
n -t * -a 10 -s 10 -S UP -v circle -c black -i black
n -t * -a 11 -s 11 -S UP -v circle -c black -i black
l -t * -s 0 -d 8 -S UP -r 1000000 -D 0.01 -c black -o right
l -t * -s 1 -d 10 -S UP -r 1000000 -D 0.01 -c black -o left-down
l -t * -s 0 -d 9 -S UP -r 1000000 -D 0.01 -c black -o left-up
l -t * -s 9 -d 11 -S UP -r 1000000 -D 0.01 -c black -o up
l -t * -s 10 -d 11 -S UP -r 1000000 -D 0.01 -c black -o left
l -t * -s 11 -d 5 -S UP -r 1000000 -D 0.01 -c black -o left-down
l -t * -s 7 -d 6 -S UP -r 1000000 -D 0.01 -c black -o right
+ -t 0.000169788487334637 -s 0 -d 8 -p rtProtoLS -e 100 -c 0 -i 2 -a 0 -x {0.2 8.1 -1 ------- null}
- -t 0.000169788487334637 -s 0 -d 8 -p rtProtoLS -e 100 -c 0 -i 2 -a 0 -x {0.2 8.1 -1 ------- null}
h -t 0.000169788487334637 -s 0 -d 8 -p rtProtoLS -e 100 -c 0 -i 2 -a 0 -x {0.2 8.1 -1 ------- null}
+ -t 0.000169788487334637 -s 0 -d 9 -p rtProtoLS -e 100 -c 0 -i 3 -a 0 -x {0.2 9.1 -1 ------- null}
- -t 0.000169788487334637 -s 0 -d 9 -p rtProtoLS -e 100 -c 0 -i 3 -a 0 -x {0.2 9.1 -1 ------- null}
h -t 0.000169788487334637 -s 0 -d 9 -p rtProtoLS -e 100 -c 0 -i 3 -a 0 -x {0.2 9.1 -1 ------- null}
r -t 0.0109697884873346 -s 0 -d 8 -p rtProtoLS -e 100 -c 0 -i 2 -a 0 -x {0.2 8.1 -1 ------- null}
+ -t 0.0109697884873346 -s 8 -d 0 -p rtProtoLS -e 20 -c 0 -i 8 -a 0 -x {8.1 0.2 -1 ------- null}
- -t 0.0109697884873346 -s 8 -d 0 -p rtProtoLS -e 20 -c 0 -i 8 -a 0 -x {8.1 0.2 -1 ------- null}
h -t 0.0109697884873346 -s 8 -d 0 -p rtProtoLS -e 20 -c 0 -i 8 -a 0 -x {8.1 0.2 -1 ------- null}
r -t 0.0109697884873346 -s 0 -d 9 -p rtProtoLS -e 100 -c 0 -i 3 -a 0 -x {0.2 9.1 -1 ------- null}
+ -t 0.0109697884873346 -s 9 -d 0 -p rtProtoLS -e 20 -c 0 -i 9 -a 0 -x {9.1 0.2 -1 ------- null}
- -t 0.0109697884873346 -s 9 -d 0 -p rtProtoLS -e 20 -c 0 -i 9 -a 0 -x {9.1 0.2 -1 ------- null}
h -t 0.0109697884873346 -s 9 -d 0 -p rtProtoLS -e 20 -c 0 -i 9 -a 0 -x {9.1 0.2 -1 ------- null}
+ -t 0.0109697884873346 -s 9 -d 11 -p rtProtoLS -e 100 -c 0 -i 10 -a 0 -x {9.1 11.1 -1 ------- null}
- -t 0.0109697884873346 -s 9 -d 11 -p rtProtoLS -e 100 -c 0 -i 10 -a 0 -x {9.1 11.1 -1 ------- null}
h -t 0.0109697884873346 -s 9 -d 11 -p rtProtoLS -e 100 -c 0 -i 10 -a 0 -x {9.1 11.1 -1 ------- null}
r -t 0.0211297884873346 -s 8 -d 0 -p rtProtoLS -e 20 -c 0 -i 8 -a 0 -x {8.1 0.2 -1 ------- null}
r -t 0.0211297884873346 -s 9 -d 0 -p rtProtoLS -e 20 -c 0 -i 9 -a 0 -x {9.1 0.2 -1 ------- null}
r -t 0.0217697884873346 -s 9 -d 11 -p rtProtoLS -e 100 -c 0 -i 10 -a 0 -x {9.1 11.1 -1 ------- null}
+ -t 0.0217697884873346 -s 11 -d 9 -p rtProtoLS -e 20 -c 0 -i 17 -a 0 -x {11.1 9.1 -1 ------- null}
- -t 0.0217697884873346 -s 11 -d 9 -p rtProtoLS -e 20 -c 0 -i 17 -a 0 -x {11.1 9.1 -1 ------- null}
h -t 0.0217697884873346 -s 11 -d 9 -p rtProtoLS -e 20 -c 0 -i 17 -a 0 -x {11.1 9.1 -1 ------- null}
+ -t 0.0217697884873346 -s 11 -d 5 -p rtProtoLS -e 100 -c 0 -i 18 -a 0 -x {11.1 5.3 -1 ------- null}
- -t 0.0217697884873346 -s 11 -d 5 -p rtProtoLS -e 100 -c 0 -i 18 -a 0 -x {11.1 5.3 -1 ------- null}
h -t 0.0217697884873346 -s 11 -d 5 -p rtProtoLS -e 100 -c 0 -i 18 -a 0 -x {11.1 5.3 -1 ------- null}
+ -t 0.0217697884873346 -s 11 -d 10 -p rtProtoLS -e 100 -c 0 -i 19 -a 0 -x {11.1 10.1 -1 ------- null}
- -t 0.0217697884873346 -s 11 -d 10 -p rtProtoLS -e 100 -c 0 -i 19 -a 0 -x {11.1 10.1 -1 ------- null}
h -t 0.0217697884873346 -s 11 -d 10 -p rtProtoLS -e 100 -c 0 -i 19 -a 0 -x {11.1 10.1 -1 ------- null}
r -t 0.0319297884873346 -s 11 -d 9 -p rtProtoLS -e 20 -c 0 -i 17 -a 0 -x {11.1 9.1 -1 ------- null}
r -t 0.0325697884873346 -s 11 -d 5 -p rtProtoLS -e 100 -c 0 -i 18 -a 0 -x {11.1 5.3 -1 ------- null}
+ -t 0.0325697884873346 -s 5 -d 11 -p rtProtoLS -e 20 -c 0 -i 26 -a 0 -x {5.3 11.1 -1 ------- null}
- -t 0.0325697884873346 -s 5 -d 11 -p rtProtoLS -e 20 -c 0 -i 26 -a 0 -x {5.3 11.1 -1 ------- null}
h -t 0.0325697884873346 -s 5 -d 11 -p rtProtoLS -e 20 -c 0 -i 26 -a 0 -x {5.3 11.1 -1 ------- null}
r -t 0.0325697884873346 -s 11 -d 10 -p rtProtoLS -e 100 -c 0 -i 19 -a 0 -x {11.1 10.1 -1 ------- null}
+ -t 0.0325697884873346 -s 10 -d 11 -p rtProtoLS -e 20 -c 0 -i 27 -a 0 -x {10.1 11.1 -1 ------- null}
- -t 0.0325697884873346 -s 10 -d 11 -p rtProtoLS -e 20 -c 0 -i 27 -a 0 -x {10.1 11.1 -1 ------- null}
h -t 0.0325697884873346 -s 10 -d 11 -p rtProtoLS -e 20 -c 0 -i 27 -a 0 -x {10.1 11.1 -1 ------- null}
+ -t 0.0325697884873346 -s 10 -d 1 -p rtProtoLS -e 100 -c 0 -i 28 -a 0 -x {10.1 1.2 -1 ------- null}
- -t 0.0325697884873346 -s 10 -d 1 -p rtProtoLS -e 100 -c 0 -i 28 -a 0 -x {10.1 1.2 -1 ------- null}
h -t 0.0325697884873346 -s 10 -d 1 -p rtProtoLS -e 100 -c 0 -i 28 -a 0 -x {10.1 1.2 -1 ------- null}
r -t 0.0427297884873346 -s 5 -d 11 -p rtProtoLS -e 20 -c 0 -i 26 -a 0 -x {5.3 11.1 -1 ------- null}
r -t 0.0427297884873346 -s 10 -d 11 -p rtProtoLS -e 20 -c 0 -i 27 -a 0 -x {10.1 11.1 -1 ------- null}
r -t 0.0433697884873346 -s 10 -d 1 -p rtProtoLS -e 100 -c 0 -i 28 -a 0 -x {10.1 1.2 -1 ------- null}
+ -t 0.0433697884873346 -s 1 -d 10 -p rtProtoLS -e 20 -c 0 -i 35 -a 0 -x {1.2 10.1 -1 ------- null}
- -t 0.0433697884873346 -s 1 -d 10 -p rtProtoLS -e 20 -c 0 -i 35 -a 0 -x {1.2 10.1 -1 ------- null}
h -t 0.0433697884873346 -s 1 -d 10 -p rtProtoLS -e 20 -c 0 -i 35 -a 0 -x {1.2 10.1 -1 ------- null}
r -t 0.0535297884873346 -s 1 -d 10 -p rtProtoLS -e 20 -c 0 -i 35 -a 0 -x {1.2 10.1 -1 ------- null}
+ -t 0.117300875772397 -s 8 -d 0 -p rtProtoLS -e 100 -c 0 -i 76 -a 0 -x {8.1 0.2 -1 ------- null}
- -t 0.117300875772397 -s 8 -d 0 -p rtProtoLS -e 100 -c 0 -i 76 -a 0 -x {8.1 0.2 -1 ------- null}
h -t 0.117300875772397 -s 8 -d 0 -p rtProtoLS -e 100 -c 0 -i 76 -a 0 -x {8.1 0.2 -1 ------- null}
r -t 0.128100875772397 -s 8 -d 0 -p rtProtoLS -e 100 -c 0 -i 76 -a 0 -x {8.1 0.2 -1 ------- null}
+ -t 0.128100875772397 -s 0 -d 8 -p rtProtoLS -e 20 -c 0 -i 83 -a 0 -x {0.2 8.1 -1 ------- null}
- -t 0.128100875772397 -s 0 -d 8 -p rtProtoLS -e 20 -c 0 -i 83 -a 0 -x {0.2 8.1 -1 ------- null}
h -t 0.128100875772397 -s 0 -d 8 -p rtProtoLS -e 20 -c 0 -i 83 -a 0 -x {0.2 8.1 -1 ------- null}
+ -t 0.128100875772397 -s 0 -d 9 -p rtProtoLS -e 100 -c 0 -i 84 -a 0 -x {0.2 9.1 -1 ------- null}
- -t 0.128100875772397 -s 0 -d 9 -p rtProtoLS -e 100 -c 0 -i 84 -a 0 -x {0.2 9.1 -1 ------- null}
h -t 0.128100875772397 -s 0 -d 9 -p rtProtoLS -e 100 -c 0 -i 84 -a 0 -x {0.2 9.1 -1 ------- null}
r -t 0.138260875772397 -s 0 -d 8 -p rtProtoLS -e 20 -c 0 -i 83 -a 0 -x {0.2 8.1 -1 ------- null}
r -t 0.138900875772397 -s 0 -d 9 -p rtProtoLS -e 100 -c 0 -i 84 -a 0 -x {0.2 9.1 -1 ------- null}
+ -t 0.138900875772397 -s 9 -d 0 -p rtProtoLS -e 20 -c 0 -i 91 -a 0 -x {9.1 0.2 -1 ------- null}
- -t 0.138900875772397 -s 9 -d 0 -p rtProtoLS -e 20 -c 0 -i 91 -a 0 -x {9.1 0.2 -1 ------- null}
h -t 0.138900875772397 -s 9 -d 0 -p rtProtoLS -e 20 -c 0 -i 91 -a 0 -x {9.1 0.2 -1 ------- null}
+ -t 0.138900875772397 -s 9 -d 11 -p rtProtoLS -e 100 -c 0 -i 92 -a 0 -x {9.1 11.1 -1 ------- null}
- -t 0.138900875772397 -s 9 -d 11 -p rtProtoLS -e 100 -c 0 -i 92 -a 0 -x {9.1 11.1 -1 ------- null}
h -t 0.138900875772397 -s 9 -d 11 -p rtProtoLS -e 100 -c 0 -i 92 -a 0 -x {9.1 11.1 -1 ------- null}
r -t 0.149060875772397 -s 9 -d 0 -p rtProtoLS -e 20 -c 0 -i 91 -a 0 -x {9.1 0.2 -1 ------- null}
r -t 0.149700875772397 -s 9 -d 11 -p rtProtoLS -e 100 -c 0 -i 92 -a 0 -x {9.1 11.1 -1 ------- null}
+ -t 0.149700875772397 -s 11 -d 9 -p rtProtoLS -e 20 -c 0 -i 97 -a 0 -x {11.1 9.1 -1 ------- null}
- -t 0.149700875772397 -s 11 -d 9 -p rtProtoLS -e 20 -c 0 -i 97 -a 0 -x {11.1 9.1 -1 ------- null}
h -t 0.149700875772397 -s 11 -d 9 -p rtProtoLS -e 20 -c 0 -i 97 -a 0 -x {11.1 9.1 -1 ------- null}
+ -t 0.149700875772397 -s 11 -d 5 -p rtProtoLS -e 100 -c 0 -i 98 -a 0 -x {11.1 5.3 -1 ------- null}
- -t 0.149700875772397 -s 11 -d 5 -p rtProtoLS -e 100 -c 0 -i 98 -a 0 -x {11.1 5.3 -1 ------- null}
h -t 0.149700875772397 -s 11 -d 5 -p rtProtoLS -e 100 -c 0 -i 98 -a 0 -x {11.1 5.3 -1 ------- null}
+ -t 0.149700875772397 -s 11 -d 10 -p rtProtoLS -e 100 -c 0 -i 99 -a 0 -x {11.1 10.1 -1 ------- null}
- -t 0.149700875772397 -s 11 -d 10 -p rtProtoLS -e 100 -c 0 -i 99 -a 0 -x {11.1 10.1 -1 ------- null}
h -t 0.149700875772397 -s 11 -d 10 -p rtProtoLS -e 100 -c 0 -i 99 -a 0 -x {11.1 10.1 -1 ------- null}
+ -t 0.154539528840473 -s 10 -d 1 -p rtProtoLS -e 100 -c 0 -i 104 -a 0 -x {10.1 1.2 -1 ------- null}
- -t 0.154539528840473 -s 10 -d 1 -p rtProtoLS -e 100 -c 0 -i 104 -a 0 -x {10.1 1.2 -1 ------- null}
h -t 0.154539528840473 -s 10 -d 1 -p rtProtoLS -e 100 -c 0 -i 104 -a 0 -x {10.1 1.2 -1 ------- null}
+ -t 0.154539528840473 -s 10 -d 11 -p rtProtoLS -e 100 -c 0 -i 105 -a 0 -x {10.1 11.1 -1 ------- null}
- -t 0.154539528840473 -s 10 -d 11 -p rtProtoLS -e 100 -c 0 -i 105 -a 0 -x {10.1 11.1 -1 ------- null}
h -t 0.154539528840473 -s 10 -d 11 -p rtProtoLS -e 100 -c 0 -i 105 -a 0 -x {10.1 11.1 -1 ------- null}
+ -t 0.156480885882155 -s 6 -d 7 -p rtProtoLS -e 100 -c 0 -i 106 -a 0 -x {6.1 7.1 -1 ------- null}
- -t 0.156480885882155 -s 6 -d 7 -p rtProtoLS -e 100 -c 0 -i 106 -a 0 -x {6.1 7.1 -1 ------- null}
h -t 0.156480885882155 -s 6 -d 7 -p rtProtoLS -e 100 -c 0 -i 106 -a 0 -x {6.1 7.1 -1 ------- null}
r -t 0.159860875772397 -s 11 -d 9 -p rtProtoLS -e 20 -c 0 -i 97 -a 0 -x {11.1 9.1 -1 ------- null}
r -t 0.160500875772397 -s 11 -d 5 -p rtProtoLS -e 100 -c 0 -i 98 -a 0 -x {11.1 5.3 -1 ------- null}
+ -t 0.160500875772397 -s 5 -d 11 -p rtProtoLS -e 20 -c 0 -i 109 -a 0 -x {5.3 11.1 -1 ------- null}
- -t 0.160500875772397 -s 5 -d 11 -p rtProtoLS -e 20 -c 0 -i 109 -a 0 -x {5.3 11.1 -1 ------- null}
h -t 0.160500875772397 -s 5 -d 11 -p rtProtoLS -e 20 -c 0 -i 109 -a 0 -x {5.3 11.1 -1 ------- null}
r -t 0.160500875772397 -s 11 -d 10 -p rtProtoLS -e 100 -c 0 -i 99 -a 0 -x {11.1 10.1 -1 ------- null}
+ -t 0.160500875772397 -s 10 -d 11 -p rtProtoLS -e 20 -c 0 -i 110 -a 0 -x {10.1 11.1 -1 ------- null}
- -t 0.160500875772397 -s 10 -d 11 -p rtProtoLS -e 20 -c 0 -i 110 -a 0 -x {10.1 11.1 -1 ------- null}
h -t 0.160500875772397 -s 10 -d 11 -p rtProtoLS -e 20 -c 0 -i 110 -a 0 -x {10.1 11.1 -1 ------- null}
+ -t 0.160500875772397 -s 10 -d 1 -p rtProtoLS -e 100 -c 0 -i 111 -a 0 -x {10.1 1.2 -1 ------- null}
- -t 0.160500875772397 -s 10 -d 1 -p rtProtoLS -e 100 -c 0 -i 111 -a 0 -x {10.1 1.2 -1 ------- null}
h -t 0.160500875772397 -s 10 -d 1 -p rtProtoLS -e 100 -c 0 -i 111 -a 0 -x {10.1 1.2 -1 ------- null}
r -t 0.165339528840473 -s 10 -d 1 -p rtProtoLS -e 100 -c 0 -i 104 -a 0 -x {10.1 1.2 -1 ------- null}
+ -t 0.165339528840473 -s 1 -d 10 -p rtProtoLS -e 20 -c 0 -i 116 -a 0 -x {1.2 10.1 -1 ------- null}
- -t 0.165339528840473 -s 1 -d 10 -p rtProtoLS -e 20 -c 0 -i 116 -a 0 -x {1.2 10.1 -1 ------- null}
h -t 0.165339528840473 -s 1 -d 10 -p rtProtoLS -e 20 -c 0 -i 116 -a 0 -x {1.2 10.1 -1 ------- null}
r -t 0.165339528840473 -s 10 -d 11 -p rtProtoLS -e 100 -c 0 -i 105 -a 0 -x {10.1 11.1 -1 ------- null}
+ -t 0.165339528840473 -s 11 -d 10 -p rtProtoLS -e 20 -c 0 -i 117 -a 0 -x {11.1 10.1 -1 ------- null}
- -t 0.165339528840473 -s 11 -d 10 -p rtProtoLS -e 20 -c 0 -i 117 -a 0 -x {11.1 10.1 -1 ------- null}
h -t 0.165339528840473 -s 11 -d 10 -p rtProtoLS -e 20 -c 0 -i 117 -a 0 -x {11.1 10.1 -1 ------- null}
+ -t 0.165339528840473 -s 11 -d 5 -p rtProtoLS -e 100 -c 0 -i 118 -a 0 -x {11.1 5.3 -1 ------- null}
- -t 0.165339528840473 -s 11 -d 5 -p rtProtoLS -e 100 -c 0 -i 118 -a 0 -x {11.1 5.3 -1 ------- null}
h -t 0.165339528840473 -s 11 -d 5 -p rtProtoLS -e 100 -c 0 -i 118 -a 0 -x {11.1 5.3 -1 ------- null}
+ -t 0.165339528840473 -s 11 -d 9 -p rtProtoLS -e 100 -c 0 -i 119 -a 0 -x {11.1 9.1 -1 ------- null}
- -t 0.165339528840473 -s 11 -d 9 -p rtProtoLS -e 100 -c 0 -i 119 -a 0 -x {11.1 9.1 -1 ------- null}
h -t 0.165339528840473 -s 11 -d 9 -p rtProtoLS -e 100 -c 0 -i 119 -a 0 -x {11.1 9.1 -1 ------- null}
r -t 0.167280885882155 -s 6 -d 7 -p rtProtoLS -e 100 -c 0 -i 106 -a 0 -x {6.1 7.1 -1 ------- null}
+ -t 0.167280885882155 -s 7 -d 6 -p rtProtoLS -e 20 -c 0 -i 120 -a 0 -x {7.1 6.1 -1 ------- null}
- -t 0.167280885882155 -s 7 -d 6 -p rtProtoLS -e 20 -c 0 -i 120 -a 0 -x {7.1 6.1 -1 ------- null}
h -t 0.167280885882155 -s 7 -d 6 -p rtProtoLS -e 20 -c 0 -i 120 -a 0 -x {7.1 6.1 -1 ------- null}
r -t 0.170660875772397 -s 5 -d 11 -p rtProtoLS -e 20 -c 0 -i 109 -a 0 -x {5.3 11.1 -1 ------- null}
r -t 0.170660875772397 -s 10 -d 11 -p rtProtoLS -e 20 -c 0 -i 110 -a 0 -x {10.1 11.1 -1 ------- null}
r -t 0.171300875772397 -s 10 -d 1 -p rtProtoLS -e 100 -c 0 -i 111 -a 0 -x {10.1 1.2 -1 ------- null}
+ -t 0.171300875772397 -s 1 -d 10 -p rtProtoLS -e 20 -c 0 -i 123 -a 0 -x {1.2 10.1 -1 ------- null}
- -t 0.171300875772397 -s 1 -d 10 -p rtProtoLS -e 20 -c 0 -i 123 -a 0 -x {1.2 10.1 -1 ------- null}
h -t 0.171300875772397 -s 1 -d 10 -p rtProtoLS -e 20 -c 0 -i 123 -a 0 -x {1.2 10.1 -1 ------- null}
r -t 0.175499528840473 -s 1 -d 10 -p rtProtoLS -e 20 -c 0 -i 116 -a 0 -x {1.2 10.1 -1 ------- null}
r -t 0.175499528840473 -s 11 -d 10 -p rtProtoLS -e 20 -c 0 -i 117 -a 0 -x {11.1 10.1 -1 ------- null}
r -t 0.176139528840473 -s 11 -d 5 -p rtProtoLS -e 100 -c 0 -i 118 -a 0 -x {11.1 5.3 -1 ------- null}
+ -t 0.176139528840473 -s 5 -d 11 -p rtProtoLS -e 20 -c 0 -i 126 -a 0 -x {5.3 11.1 -1 ------- null}
- -t 0.176139528840473 -s 5 -d 11 -p rtProtoLS -e 20 -c 0 -i 126 -a 0 -x {5.3 11.1 -1 ------- null}
h -t 0.176139528840473 -s 5 -d 11 -p rtProtoLS -e 20 -c 0 -i 126 -a 0 -x {5.3 11.1 -1 ------- null}
r -t 0.176139528840473 -s 11 -d 9 -p rtProtoLS -e 100 -c 0 -i 119 -a 0 -x {11.1 9.1 -1 ------- null}
+ -t 0.176139528840473 -s 9 -d 11 -p rtProtoLS -e 20 -c 0 -i 127 -a 0 -x {9.1 11.1 -1 ------- null}
- -t 0.176139528840473 -s 9 -d 11 -p rtProtoLS -e 20 -c 0 -i 127 -a 0 -x {9.1 11.1 -1 ------- null}
h -t 0.176139528840473 -s 9 -d 11 -p rtProtoLS -e 20 -c 0 -i 127 -a 0 -x {9.1 11.1 -1 ------- null}
+ -t 0.176139528840473 -s 9 -d 0 -p rtProtoLS -e 100 -c 0 -i 128 -a 0 -x {9.1 0.2 -1 ------- null}
- -t 0.176139528840473 -s 9 -d 0 -p rtProtoLS -e 100 -c 0 -i 128 -a 0 -x {9.1 0.2 -1 ------- null}
h -t 0.176139528840473 -s 9 -d 0 -p rtProtoLS -e 100 -c 0 -i 128 -a 0 -x {9.1 0.2 -1 ------- null}
r -t 0.177440885882155 -s 7 -d 6 -p rtProtoLS -e 20 -c 0 -i 120 -a 0 -x {7.1 6.1 -1 ------- null}
r -t 0.181460875772397 -s 1 -d 10 -p rtProtoLS -e 20 -c 0 -i 123 -a 0 -x {1.2 10.1 -1 ------- null}
r -t 0.186299528840473 -s 5 -d 11 -p rtProtoLS -e 20 -c 0 -i 126 -a 0 -x {5.3 11.1 -1 ------- null}
r -t 0.186299528840473 -s 9 -d 11 -p rtProtoLS -e 20 -c 0 -i 127 -a 0 -x {9.1 11.1 -1 ------- null}
r -t 0.186939528840473 -s 9 -d 0 -p rtProtoLS -e 100 -c 0 -i 128 -a 0 -x {9.1 0.2 -1 ------- null}
+ -t 0.186939528840473 -s 0 -d 9 -p rtProtoLS -e 20 -c 0 -i 135 -a 0 -x {0.2 9.1 -1 ------- null}
- -t 0.186939528840473 -s 0 -d 9 -p rtProtoLS -e 20 -c 0 -i 135 -a 0 -x {0.2 9.1 -1 ------- null}
h -t 0.186939528840473 -s 0 -d 9 -p rtProtoLS -e 20 -c 0 -i 135 -a 0 -x {0.2 9.1 -1 ------- null}
+ -t 0.186939528840473 -s 0 -d 8 -p rtProtoLS -e 100 -c 0 -i 136 -a 0 -x {0.2 8.1 -1 ------- null}
- -t 0.186939528840473 -s 0 -d 8 -p rtProtoLS -e 100 -c 0 -i 136 -a 0 -x {0.2 8.1 -1 ------- null}
h -t 0.186939528840473 -s 0 -d 8 -p rtProtoLS -e 100 -c 0 -i 136 -a 0 -x {0.2 8.1 -1 ------- null}
r -t 0.197099528840473 -s 0 -d 9 -p rtProtoLS -e 20 -c 0 -i 135 -a 0 -x {0.2 9.1 -1 ------- null}
r -t 0.197739528840473 -s 0 -d 8 -p rtProtoLS -e 100 -c 0 -i 136 -a 0 -x {0.2 8.1 -1 ------- null}
+ -t 0.197739528840473 -s 8 -d 0 -p rtProtoLS -e 20 -c 0 -i 143 -a 0 -x {8.1 0.2 -1 ------- null}
- -t 0.197739528840473 -s 8 -d 0 -p rtProtoLS -e 20 -c 0 -i 143 -a 0 -x {8.1 0.2 -1 ------- null}
h -t 0.197739528840473 -s 8 -d 0 -p rtProtoLS -e 20 -c 0 -i 143 -a 0 -x {8.1 0.2 -1 ------- null}
r -t 0.207899528840473 -s 8 -d 0 -p rtProtoLS -e 20 -c 0 -i 143 -a 0 -x {8.1 0.2 -1 ------- null}
+ -t 0.277940357931862 -s 1 -d 10 -p rtProtoLS -e 100 -c 0 -i 188 -a 0 -x {1.2 10.1 -1 ------- null}
- -t 0.277940357931862 -s 1 -d 10 -p rtProtoLS -e 100 -c 0 -i 188 -a 0 -x {1.2 10.1 -1 ------- null}
h -t 0.277940357931862 -s 1 -d 10 -p rtProtoLS -e 100 -c 0 -i 188 -a 0 -x {1.2 10.1 -1 ------- null}
r -t 0.288740357931862 -s 1 -d 10 -p rtProtoLS -e 100 -c 0 -i 188 -a 0 -x {1.2 10.1 -1 ------- null}
+ -t 0.288740357931862 -s 10 -d 1 -p rtProtoLS -e 20 -c 0 -i 193 -a 0 -x {10.1 1.2 -1 ------- null}
- -t 0.288740357931862 -s 10 -d 1 -p rtProtoLS -e 20 -c 0 -i 193 -a 0 -x {10.1 1.2 -1 ------- null}
h -t 0.288740357931862 -s 10 -d 1 -p rtProtoLS -e 20 -c 0 -i 193 -a 0 -x {10.1 1.2 -1 ------- null}
+ -t 0.288740357931862 -s 10 -d 11 -p rtProtoLS -e 100 -c 0 -i 194 -a 0 -x {10.1 11.1 -1 ------- null}
- -t 0.288740357931862 -s 10 -d 11 -p rtProtoLS -e 100 -c 0 -i 194 -a 0 -x {10.1 11.1 -1 ------- null}
h -t 0.288740357931862 -s 10 -d 11 -p rtProtoLS -e 100 -c 0 -i 194 -a 0 -x {10.1 11.1 -1 ------- null}
r -t 0.298900357931862 -s 10 -d 1 -p rtProtoLS -e 20 -c 0 -i 193 -a 0 -x {10.1 1.2 -1 ------- null}
r -t 0.299540357931862 -s 10 -d 11 -p rtProtoLS -e 100 -c 0 -i 194 -a 0 -x {10.1 11.1 -1 ------- null}
+ -t 0.299540357931862 -s 11 -d 10 -p rtProtoLS -e 20 -c 0 -i 201 -a 0 -x {11.1 10.1 -1 ------- null}
- -t 0.299540357931862 -s 11 -d 10 -p rtProtoLS -e 20 -c 0 -i 201 -a 0 -x {11.1 10.1 -1 ------- null}
h -t 0.299540357931862 -s 11 -d 10 -p rtProtoLS -e 20 -c 0 -i 201 -a 0 -x {11.1 10.1 -1 ------- null}
+ -t 0.299540357931862 -s 11 -d 5 -p rtProtoLS -e 100 -c 0 -i 202 -a 0 -x {11.1 5.3 -1 ------- null}
- -t 0.299540357931862 -s 11 -d 5 -p rtProtoLS -e 100 -c 0 -i 202 -a 0 -x {11.1 5.3 -1 ------- null}
h -t 0.299540357931862 -s 11 -d 5 -p rtProtoLS -e 100 -c 0 -i 202 -a 0 -x {11.1 5.3 -1 ------- null}
+ -t 0.299540357931862 -s 11 -d 9 -p rtProtoLS -e 100 -c 0 -i 203 -a 0 -x {11.1 9.1 -1 ------- null}
- -t 0.299540357931862 -s 11 -d 9 -p rtProtoLS -e 100 -c 0 -i 203 -a 0 -x {11.1 9.1 -1 ------- null}
h -t 0.299540357931862 -s 11 -d 9 -p rtProtoLS -e 100 -c 0 -i 203 -a 0 -x {11.1 9.1 -1 ------- null}
r -t 0.309700357931862 -s 11 -d 10 -p rtProtoLS -e 20 -c 0 -i 201 -a 0 -x {11.1 10.1 -1 ------- null}
r -t 0.310340357931862 -s 11 -d 5 -p rtProtoLS -e 100 -c 0 -i 202 -a 0 -x {11.1 5.3 -1 ------- null}
+ -t 0.310340357931862 -s 5 -d 11 -p rtProtoLS -e 20 -c 0 -i 210 -a 0 -x {5.3 11.1 -1 ------- null}
- -t 0.310340357931862 -s 5 -d 11 -p rtProtoLS -e 20 -c 0 -i 210 -a 0 -x {5.3 11.1 -1 ------- null}
h -t 0.310340357931862 -s 5 -d 11 -p rtProtoLS -e 20 -c 0 -i 210 -a 0 -x {5.3 11.1 -1 ------- null}
r -t 0.310340357931862 -s 11 -d 9 -p rtProtoLS -e 100 -c 0 -i 203 -a 0 -x {11.1 9.1 -1 ------- null}
+ -t 0.310340357931862 -s 9 -d 11 -p rtProtoLS -e 20 -c 0 -i 211 -a 0 -x {9.1 11.1 -1 ------- null}
- -t 0.310340357931862 -s 9 -d 11 -p rtProtoLS -e 20 -c 0 -i 211 -a 0 -x {9.1 11.1 -1 ------- null}
h -t 0.310340357931862 -s 9 -d 11 -p rtProtoLS -e 20 -c 0 -i 211 -a 0 -x {9.1 11.1 -1 ------- null}
+ -t 0.310340357931862 -s 9 -d 0 -p rtProtoLS -e 100 -c 0 -i 212 -a 0 -x {9.1 0.2 -1 ------- null}
- -t 0.310340357931862 -s 9 -d 0 -p rtProtoLS -e 100 -c 0 -i 212 -a 0 -x {9.1 0.2 -1 ------- null}
h -t 0.310340357931862 -s 9 -d 0 -p rtProtoLS -e 100 -c 0 -i 212 -a 0 -x {9.1 0.2 -1 ------- null}
+ -t 0.31943257167909 -s 9 -d 0 -p rtProtoLS -e 100 -c 0 -i 219 -a 0 -x {9.1 0.2 -1 ------- null}
- -t 0.31943257167909 -s 9 -d 0 -p rtProtoLS -e 100 -c 0 -i 219 -a 0 -x {9.1 0.2 -1 ------- null}
h -t 0.31943257167909 -s 9 -d 0 -p rtProtoLS -e 100 -c 0 -i 219 -a 0 -x {9.1 0.2 -1 ------- null}
+ -t 0.31943257167909 -s 9 -d 11 -p rtProtoLS -e 100 -c 0 -i 220 -a 0 -x {9.1 11.1 -1 ------- null}
- -t 0.31943257167909 -s 9 -d 11 -p rtProtoLS -e 100 -c 0 -i 220 -a 0 -x {9.1 11.1 -1 ------- null}
h -t 0.31943257167909 -s 9 -d 11 -p rtProtoLS -e 100 -c 0 -i 220 -a 0 -x {9.1 11.1 -1 ------- null}
r -t 0.320500357931862 -s 5 -d 11 -p rtProtoLS -e 20 -c 0 -i 210 -a 0 -x {5.3 11.1 -1 ------- null}
r -t 0.320500357931862 -s 9 -d 11 -p rtProtoLS -e 20 -c 0 -i 211 -a 0 -x {9.1 11.1 -1 ------- null}
r -t 0.321140357931862 -s 9 -d 0 -p rtProtoLS -e 100 -c 0 -i 212 -a 0 -x {9.1 0.2 -1 ------- null}
+ -t 0.321140357931862 -s 0 -d 9 -p rtProtoLS -e 20 -c 0 -i 221 -a 0 -x {0.2 9.1 -1 ------- null}
- -t 0.321140357931862 -s 0 -d 9 -p rtProtoLS -e 20 -c 0 -i 221 -a 0 -x {0.2 9.1 -1 ------- null}
h -t 0.321140357931862 -s 0 -d 9 -p rtProtoLS -e 20 -c 0 -i 221 -a 0 -x {0.2 9.1 -1 ------- null}
+ -t 0.321140357931862 -s 0 -d 8 -p rtProtoLS -e 100 -c 0 -i 222 -a 0 -x {0.2 8.1 -1 ------- null}
- -t 0.321140357931862 -s 0 -d 8 -p rtProtoLS -e 100 -c 0 -i 222 -a 0 -x {0.2 8.1 -1 ------- null}
h -t 0.321140357931862 -s 0 -d 8 -p rtProtoLS -e 100 -c 0 -i 222 -a 0 -x {0.2 8.1 -1 ------- null}
r -t 0.330232571679089 -s 9 -d 0 -p rtProtoLS -e 100 -c 0 -i 219 -a 0 -x {9.1 0.2 -1 ------- null}
+ -t 0.330232571679089 -s 0 -d 9 -p rtProtoLS -e 20 -c 0 -i 229 -a 0 -x {0.2 9.1 -1 ------- null}
- -t 0.330232571679089 -s 0 -d 9 -p rtProtoLS -e 20 -c 0 -i 229 -a 0 -x {0.2 9.1 -1 ------- null}
h -t 0.330232571679089 -s 0 -d 9 -p rtProtoLS -e 20 -c 0 -i 229 -a 0 -x {0.2 9.1 -1 ------- null}
+ -t 0.330232571679089 -s 0 -d 8 -p rtProtoLS -e 100 -c 0 -i 230 -a 0 -x {0.2 8.1 -1 ------- null}
- -t 0.330232571679089 -s 0 -d 8 -p rtProtoLS -e 100 -c 0 -i 230 -a 0 -x {0.2 8.1 -1 ------- null}
h -t 0.330232571679089 -s 0 -d 8 -p rtProtoLS -e 100 -c 0 -i 230 -a 0 -x {0.2 8.1 -1 ------- null}
r -t 0.330232571679089 -s 9 -d 11 -p rtProtoLS -e 100 -c 0 -i 220 -a 0 -x {9.1 11.1 -1 ------- null}
+ -t 0.330232571679089 -s 11 -d 9 -p rtProtoLS -e 20 -c 0 -i 231 -a 0 -x {11.1 9.1 -1 ------- null}
- -t 0.330232571679089 -s 11 -d 9 -p rtProtoLS -e 20 -c 0 -i 231 -a 0 -x {11.1 9.1 -1 ------- null}
h -t 0.330232571679089 -s 11 -d 9 -p rtProtoLS -e 20 -c 0 -i 231 -a 0 -x {11.1 9.1 -1 ------- null}
+ -t 0.330232571679089 -s 11 -d 5 -p rtProtoLS -e 100 -c 0 -i 232 -a 0 -x {11.1 5.3 -1 ------- null}
- -t 0.330232571679089 -s 11 -d 5 -p rtProtoLS -e 100 -c 0 -i 232 -a 0 -x {11.1 5.3 -1 ------- null}
h -t 0.330232571679089 -s 11 -d 5 -p rtProtoLS -e 100 -c 0 -i 232 -a 0 -x {11.1 5.3 -1 ------- null}
+ -t 0.330232571679089 -s 11 -d 10 -p rtProtoLS -e 100 -c 0 -i 233 -a 0 -x {11.1 10.1 -1 ------- null}
- -t 0.330232571679089 -s 11 -d 10 -p rtProtoLS -e 100 -c 0 -i 233 -a 0 -x {11.1 10.1 -1 ------- null}
h -t 0.330232571679089 -s 11 -d 10 -p rtProtoLS -e 100 -c 0 -i 233 -a 0 -x {11.1 10.1 -1 ------- null}
r -t 0.331300357931862 -s 0 -d 9 -p rtProtoLS -e 20 -c 0 -i 221 -a 0 -x {0.2 9.1 -1 ------- null}
r -t 0.331940357931862 -s 0 -d 8 -p rtProtoLS -e 100 -c 0 -i 222 -a 0 -x {0.2 8.1 -1 ------- null}
+ -t 0.331940357931862 -s 8 -d 0 -p rtProtoLS -e 20 -c 0 -i 234 -a 0 -x {8.1 0.2 -1 ------- null}
- -t 0.331940357931862 -s 8 -d 0 -p rtProtoLS -e 20 -c 0 -i 234 -a 0 -x {8.1 0.2 -1 ------- null}
h -t 0.331940357931862 -s 8 -d 0 -p rtProtoLS -e 20 -c 0 -i 234 -a 0 -x {8.1 0.2 -1 ------- null}
r -t 0.340392571679089 -s 0 -d 9 -p rtProtoLS -e 20 -c 0 -i 229 -a 0 -x {0.2 9.1 -1 ------- null}
r -t 0.340392571679089 -s 11 -d 9 -p rtProtoLS -e 20 -c 0 -i 231 -a 0 -x {11.1 9.1 -1 ------- null}
r -t 0.341032571679089 -s 0 -d 8 -p rtProtoLS -e 100 -c 0 -i 230 -a 0 -x {0.2 8.1 -1 ------- null}
+ -t 0.341032571679089 -s 8 -d 0 -p rtProtoLS -e 20 -c 0 -i 239 -a 0 -x {8.1 0.2 -1 ------- null}
- -t 0.341032571679089 -s 8 -d 0 -p rtProtoLS -e 20 -c 0 -i 239 -a 0 -x {8.1 0.2 -1 ------- null}
h -t 0.341032571679089 -s 8 -d 0 -p rtProtoLS -e 20 -c 0 -i 239 -a 0 -x {8.1 0.2 -1 ------- null}
r -t 0.341032571679089 -s 11 -d 5 -p rtProtoLS -e 100 -c 0 -i 232 -a 0 -x {11.1 5.3 -1 ------- null}
+ -t 0.341032571679089 -s 5 -d 11 -p rtProtoLS -e 20 -c 0 -i 240 -a 0 -x {5.3 11.1 -1 ------- null}
- -t 0.341032571679089 -s 5 -d 11 -p rtProtoLS -e 20 -c 0 -i 240 -a 0 -x {5.3 11.1 -1 ------- null}
h -t 0.341032571679089 -s 5 -d 11 -p rtProtoLS -e 20 -c 0 -i 240 -a 0 -x {5.3 11.1 -1 ------- null}
r -t 0.341032571679089 -s 11 -d 10 -p rtProtoLS -e 100 -c 0 -i 233 -a 0 -x {11.1 10.1 -1 ------- null}
+ -t 0.341032571679089 -s 10 -d 11 -p rtProtoLS -e 20 -c 0 -i 241 -a 0 -x {10.1 11.1 -1 ------- null}
- -t 0.341032571679089 -s 10 -d 11 -p rtProtoLS -e 20 -c 0 -i 241 -a 0 -x {10.1 11.1 -1 ------- null}
h -t 0.341032571679089 -s 10 -d 11 -p rtProtoLS -e 20 -c 0 -i 241 -a 0 -x {10.1 11.1 -1 ------- null}
+ -t 0.341032571679089 -s 10 -d 1 -p rtProtoLS -e 100 -c 0 -i 242 -a 0 -x {10.1 1.2 -1 ------- null}
- -t 0.341032571679089 -s 10 -d 1 -p rtProtoLS -e 100 -c 0 -i 242 -a 0 -x {10.1 1.2 -1 ------- null}
h -t 0.341032571679089 -s 10 -d 1 -p rtProtoLS -e 100 -c 0 -i 242 -a 0 -x {10.1 1.2 -1 ------- null}
r -t 0.342100357931862 -s 8 -d 0 -p rtProtoLS -e 20 -c 0 -i 234 -a 0 -x {8.1 0.2 -1 ------- null}
r -t 0.351192571679089 -s 8 -d 0 -p rtProtoLS -e 20 -c 0 -i 239 -a 0 -x {8.1 0.2 -1 ------- null}
r -t 0.351192571679089 -s 5 -d 11 -p rtProtoLS -e 20 -c 0 -i 240 -a 0 -x {5.3 11.1 -1 ------- null}
r -t 0.351192571679089 -s 10 -d 11 -p rtProtoLS -e 20 -c 0 -i 241 -a 0 -x {10.1 11.1 -1 ------- null}
r -t 0.351832571679089 -s 10 -d 1 -p rtProtoLS -e 100 -c 0 -i 242 -a 0 -x {10.1 1.2 -1 ------- null}
+ -t 0.351832571679089 -s 1 -d 10 -p rtProtoLS -e 20 -c 0 -i 249 -a 0 -x {1.2 10.1 -1 ------- null}
- -t 0.351832571679089 -s 1 -d 10 -p rtProtoLS -e 20 -c 0 -i 249 -a 0 -x {1.2 10.1 -1 ------- null}
h -t 0.351832571679089 -s 1 -d 10 -p rtProtoLS -e 20 -c 0 -i 249 -a 0 -x {1.2 10.1 -1 ------- null}
r -t 0.361992571679089 -s 1 -d 10 -p rtProtoLS -e 20 -c 0 -i 249 -a 0 -x {1.2 10.1 -1 ------- null}
+ -t 0.399577726796073 -s 5 -d 11 -p rtProtoLS -e 100 -c 0 -i 276 -a 0 -x {5.3 11.1 -1 ------- null}
- -t 0.399577726796073 -s 5 -d 11 -p rtProtoLS -e 100 -c 0 -i 276 -a 0 -x {5.3 11.1 -1 ------- null}
h -t 0.399577726796073 -s 5 -d 11 -p rtProtoLS -e 100 -c 0 -i 276 -a 0 -x {5.3 11.1 -1 ------- null}
+ -t 0.408238025805092 -s 7 -d 6 -p rtProtoLS -e 100 -c 0 -i 281 -a 0 -x {7.1 6.1 -1 ------- null}
- -t 0.408238025805092 -s 7 -d 6 -p rtProtoLS -e 100 -c 0 -i 281 -a 0 -x {7.1 6.1 -1 ------- null}
h -t 0.408238025805092 -s 7 -d 6 -p rtProtoLS -e 100 -c 0 -i 281 -a 0 -x {7.1 6.1 -1 ------- null}
r -t 0.410377726796073 -s 5 -d 11 -p rtProtoLS -e 100 -c 0 -i 276 -a 0 -x {5.3 11.1 -1 ------- null}
+ -t 0.410377726796073 -s 11 -d 5 -p rtProtoLS -e 20 -c 0 -i 284 -a 0 -x {11.1 5.3 -1 ------- null}
- -t 0.410377726796073 -s 11 -d 5 -p rtProtoLS -e 20 -c 0 -i 284 -a 0 -x {11.1 5.3 -1 ------- null}
h -t 0.410377726796073 -s 11 -d 5 -p rtProtoLS -e 20 -c 0 -i 284 -a 0 -x {11.1 5.3 -1 ------- null}
+ -t 0.410377726796073 -s 11 -d 9 -p rtProtoLS -e 100 -c 0 -i 285 -a 0 -x {11.1 9.1 -1 ------- null}
- -t 0.410377726796073 -s 11 -d 9 -p rtProtoLS -e 100 -c 0 -i 285 -a 0 -x {11.1 9.1 -1 ------- null}
h -t 0.410377726796073 -s 11 -d 9 -p rtProtoLS -e 100 -c 0 -i 285 -a 0 -x {11.1 9.1 -1 ------- null}
+ -t 0.410377726796073 -s 11 -d 10 -p rtProtoLS -e 100 -c 0 -i 286 -a 0 -x {11.1 10.1 -1 ------- null}
- -t 0.410377726796073 -s 11 -d 10 -p rtProtoLS -e 100 -c 0 -i 286 -a 0 -x {11.1 10.1 -1 ------- null}
h -t 0.410377726796073 -s 11 -d 10 -p rtProtoLS -e 100 -c 0 -i 286 -a 0 -x {11.1 10.1 -1 ------- null}
+ -t 0.418161768428125 -s 11 -d 5 -p rtProtoLS -e 100 -c 0 -i 291 -a 0 -x {11.1 5.3 -1 ------- null}
- -t 0.418161768428125 -s 11 -d 5 -p rtProtoLS -e 100 -c 0 -i 291 -a 0 -x {11.1 5.3 -1 ------- null}
h -t 0.418161768428125 -s 11 -d 5 -p rtProtoLS -e 100 -c 0 -i 291 -a 0 -x {11.1 5.3 -1 ------- null}
+ -t 0.418161768428125 -s 11 -d 9 -p rtProtoLS -e 100 -c 0 -i 292 -a 0 -x {11.1 9.1 -1 ------- null}
- -t 0.418161768428125 -s 11 -d 9 -p rtProtoLS -e 100 -c 0 -i 292 -a 0 -x {11.1 9.1 -1 ------- null}
h -t 0.418161768428125 -s 11 -d 9 -p rtProtoLS -e 100 -c 0 -i 292 -a 0 -x {11.1 9.1 -1 ------- null}
+ -t 0.418161768428125 -s 11 -d 10 -p rtProtoLS -e 100 -c 0 -i 293 -a 0 -x {11.1 10.1 -1 ------- null}
- -t 0.418161768428125 -s 11 -d 10 -p rtProtoLS -e 100 -c 0 -i 293 -a 0 -x {11.1 10.1 -1 ------- null}
h -t 0.418161768428125 -s 11 -d 10 -p rtProtoLS -e 100 -c 0 -i 293 -a 0 -x {11.1 10.1 -1 ------- null}
r -t 0.419038025805092 -s 7 -d 6 -p rtProtoLS -e 100 -c 0 -i 281 -a 0 -x {7.1 6.1 -1 ------- null}
+ -t 0.419038025805092 -s 6 -d 7 -p rtProtoLS -e 20 -c 0 -i 294 -a 0 -x {6.1 7.1 -1 ------- null}
- -t 0.419038025805092 -s 6 -d 7 -p rtProtoLS -e 20 -c 0 -i 294 -a 0 -x {6.1 7.1 -1 ------- null}
h -t 0.419038025805092 -s 6 -d 7 -p rtProtoLS -e 20 -c 0 -i 294 -a 0 -x {6.1 7.1 -1 ------- null}
r -t 0.420537726796073 -s 11 -d 5 -p rtProtoLS -e 20 -c 0 -i 284 -a 0 -x {11.1 5.3 -1 ------- null}
r -t 0.421177726796073 -s 11 -d 9 -p rtProtoLS -e 100 -c 0 -i 285 -a 0 -x {11.1 9.1 -1 ------- null}
+ -t 0.421177726796073 -s 9 -d 11 -p rtProtoLS -e 20 -c 0 -i 297 -a 0 -x {9.1 11.1 -1 ------- null}
- -t 0.421177726796073 -s 9 -d 11 -p rtProtoLS -e 20 -c 0 -i 297 -a 0 -x {9.1 11.1 -1 ------- null}
h -t 0.421177726796073 -s 9 -d 11 -p rtProtoLS -e 20 -c 0 -i 297 -a 0 -x {9.1 11.1 -1 ------- null}
+ -t 0.421177726796073 -s 9 -d 0 -p rtProtoLS -e 100 -c 0 -i 298 -a 0 -x {9.1 0.2 -1 ------- null}
- -t 0.421177726796073 -s 9 -d 0 -p rtProtoLS -e 100 -c 0 -i 298 -a 0 -x {9.1 0.2 -1 ------- null}
h -t 0.421177726796073 -s 9 -d 0 -p rtProtoLS -e 100 -c 0 -i 298 -a 0 -x {9.1 0.2 -1 ------- null}
r -t 0.421177726796073 -s 11 -d 10 -p rtProtoLS -e 100 -c 0 -i 286 -a 0 -x {11.1 10.1 -1 ------- null}
+ -t 0.421177726796073 -s 10 -d 11 -p rtProtoLS -e 20 -c 0 -i 299 -a 0 -x {10.1 11.1 -1 ------- null}
- -t 0.421177726796073 -s 10 -d 11 -p rtProtoLS -e 20 -c 0 -i 299 -a 0 -x {10.1 11.1 -1 ------- null}